#Lammps data file

79154 atoms
10881 bonds
    4 atom types
    1 bond types

-102.6466 425.6078 xlo xhi
-229.8249  65.0448 ylo yhi
-30.0000  30.0000 zlo zhi

Masses

 1 10.81
 2 14
 3 12
 4 12

Atoms #bond

    1 1 1 -102.647  -229.825    0.000
    2 1 1 -101.395  -227.657    0.000
    3 1 1 -102.647  -225.489    0.000
    4 1 1 -101.395  -223.320    0.000
    5 1 1 -102.647  -221.152    0.000
    6 1 1 -101.395  -218.984    0.000
    7 1 1 -102.647  -216.816    0.000
    8 1 1 -101.395  -214.648    0.000
    9 1 1 -102.647  -212.480    0.000
   10 1 1 -101.395  -210.311    0.000
   11 1 1 -102.647  -208.143    0.000
   12 1 1 -101.395  -205.975    0.000
   13 1 1 -102.647  -203.807    0.000
   14 1 1 -101.395  -201.639    0.000
   15 1 1 -102.647  -199.471    0.000
   16 1 1 -101.395  -197.303    0.000
   17 1 1 -102.647  -195.134    0.000
   18 1 1 -101.395  -192.966    0.000
   19 1 1 -102.647  -190.798    0.000
   20 1 1 -101.395  -188.630    0.000
   21 1 1 -102.647  -186.462    0.000
   22 1 1 -101.395  -184.294    0.000
   23 1 1 -102.647  -182.125    0.000
   24 1 1 -101.395  -179.957    0.000
   25 1 1 -102.647  -177.789    0.000
   26 1 1 -101.395  -175.621    0.000
   27 1 1 -102.647  -173.453    0.000
   28 1 1 -101.395  -171.285    0.000
   29 1 1 -102.647  -169.116    0.000
   30 1 1 -101.395  -166.948    0.000
   31 1 1 -102.647  -164.780    0.000
   32 1 1 -101.395  -162.612    0.000
   33 1 1 -102.647  -160.444    0.000
   34 1 1 -101.395  -158.276    0.000
   35 1 1 -102.647  -156.107    0.000
   36 1 1 -101.395  -153.939    0.000
   37 1 1 -102.647  -151.771    0.000
   38 1 1 -101.395  -149.603    0.000
   39 1 1 -102.647  -147.435    0.000
   40 1 1 -101.395  -145.267    0.000
   41 1 1 -102.647  -143.099    0.000
   42 1 1 -101.395  -140.930    0.000
   43 1 1 -102.647  -138.762    0.000
   44 1 1 -101.395  -136.594    0.000
   45 1 1 -102.647  -134.426    0.000
   46 1 1 -101.395  -132.258    0.000
   47 1 1 -102.647  -130.090    0.000
   48 1 1 -101.395  -127.921    0.000
   49 1 1 -102.647  -125.753    0.000
   50 1 1 -101.395  -123.585    0.000
   51 1 1 -102.647  -121.417    0.000
   52 1 1 -101.395  -119.249    0.000
   53 1 1 -102.647  -117.081    0.000
   54 1 1 -101.395  -114.912    0.000
   55 1 1 -102.647  -112.744    0.000
   56 1 1 -101.395  -110.576    0.000
   57 1 1 -102.647  -108.408    0.000
   58 1 1 -101.395  -106.240    0.000
   59 1 1 -102.647  -104.072    0.000
   60 1 1 -101.395  -101.904    0.000
   61 1 1 -102.647  -99.735    0.000
   62 1 1 -101.395  -97.567    0.000
   63 1 1 -102.647  -95.399    0.000
   64 1 1 -101.395  -93.231    0.000
   65 1 1 -102.647  -91.063    0.000
   66 1 1 -101.395  -88.895    0.000
   67 1 1 -102.647  -86.726    0.000
   68 1 1 -101.395  -84.558    0.000
   69 1 1 -102.647  -82.390    0.000
   70 1 1 -101.395  -80.222    0.000
   71 1 1 -102.647  -78.054    0.000
   72 1 1 -101.395  -75.886    0.000
   73 1 1 -102.647  -73.717    0.000
   74 1 1 -101.395  -71.549    0.000
   75 1 1 -102.647  -69.381    0.000
   76 1 1 -101.395  -67.213    0.000
   77 1 1 -102.647  -65.045    0.000
   78 1 1 -101.395  -62.877    0.000
   79 1 1 -102.647  -60.708    0.000
   80 1 1 -101.395  -58.540    0.000
   81 1 1 -102.647  -56.372    0.000
   82 1 1 -101.395  -54.204    0.000
   83 1 1 -102.647  -52.036    0.000
   84 1 1 -101.395  -49.868    0.000
   85 1 1 -102.647  -47.700    0.000
   86 1 1 -101.395  -45.531    0.000
   87 1 1 -102.647  -43.363    0.000
   88 1 1 -101.395  -41.195    0.000
   89 1 1 -102.647  -39.027    0.000
   90 1 1 -101.395  -36.859    0.000
   91 1 1 -102.647  -34.691    0.000
   92 1 1 -101.395  -32.522    0.000
   93 1 1 -102.647  -30.354    0.000
   94 1 1 -101.395  -28.186    0.000
   95 1 1 -102.647  -26.018    0.000
   96 1 1 -101.395  -23.850    0.000
   97 1 1 -102.647  -21.682    0.000
   98 1 1 -101.395  -19.513    0.000
   99 1 1 -102.647  -17.345    0.000
  100 1 1 -101.395  -15.177    0.000
  101 1 1 -102.647  -13.009    0.000
  102 1 1 -101.395  -10.841    0.000
  103 1 1 -102.647   -8.673    0.000
  104 1 1 -101.395   -6.504    0.000
  105 1 1 -102.647   -4.336    0.000
  106 1 1 -101.395   -2.168    0.000
  107 1 1 -102.647    0.000    0.000
  108 1 1 -101.395    2.168    0.000
  109 1 1 -102.647    4.336    0.000
  110 1 1 -101.395    6.504    0.000
  111 1 1 -102.647    8.673    0.000
  112 1 1 -101.395   10.841    0.000
  113 1 1 -102.647   13.009    0.000
  114 1 1 -101.395   15.177    0.000
  115 1 1 -102.647   17.345    0.000
  116 1 1 -101.395   19.513    0.000
  117 1 1 -102.647   21.682    0.000
  118 1 1 -101.395   23.850    0.000
  119 1 1 -102.647   26.018    0.000
  120 1 1 -101.395   28.186    0.000
  121 1 1 -102.647   30.354    0.000
  122 1 1 -101.395   32.522    0.000
  123 1 1 -102.647   34.691    0.000
  124 1 1 -101.395   36.859    0.000
  125 1 1 -102.647   39.027    0.000
  126 1 1 -101.395   41.195    0.000
  127 1 1 -102.647   43.363    0.000
  128 1 1 -101.395   45.531    0.000
  129 1 1 -102.647   47.700    0.000
  130 1 1 -101.395   49.868    0.000
  131 1 1 -102.647   52.036    0.000
  132 1 1 -101.395   54.204    0.000
  133 1 1 -102.647   56.372    0.000
  134 1 1 -101.395   58.540    0.000
  135 1 1 -102.647   60.708    0.000
  136 1 1 -101.395   62.877    0.000
  137 1 1 -100.143  -229.825    0.000
  138 1 1 -98.891  -227.657    0.000
  139 1 1 -100.143  -225.489    0.000
  140 1 1 -98.891  -223.320    0.000
  141 1 1 -100.143  -221.152    0.000
  142 1 1 -98.891  -218.984    0.000
  143 1 1 -100.143  -216.816    0.000
  144 1 1 -98.891  -214.648    0.000
  145 1 1 -100.143  -212.480    0.000
  146 1 1 -98.891  -210.311    0.000
  147 1 1 -100.143  -208.143    0.000
  148 1 1 -98.891  -205.975    0.000
  149 1 1 -100.143  -203.807    0.000
  150 1 1 -98.891  -201.639    0.000
  151 1 1 -100.143  -199.471    0.000
  152 1 1 -98.891  -197.303    0.000
  153 1 1 -100.143  -195.134    0.000
  154 1 1 -98.891  -192.966    0.000
  155 1 1 -100.143  -190.798    0.000
  156 1 1 -98.891  -188.630    0.000
  157 1 1 -100.143  -186.462    0.000
  158 1 1 -98.891  -184.294    0.000
  159 1 1 -100.143  -182.125    0.000
  160 1 1 -98.891  -179.957    0.000
  161 1 1 -100.143  -177.789    0.000
  162 1 1 -98.891  -175.621    0.000
  163 1 1 -100.143  -173.453    0.000
  164 1 1 -98.891  -171.285    0.000
  165 1 1 -100.143  -169.116    0.000
  166 1 1 -98.891  -166.948    0.000
  167 1 1 -100.143  -164.780    0.000
  168 1 1 -98.891  -162.612    0.000
  169 1 1 -100.143  -160.444    0.000
  170 1 1 -98.891  -158.276    0.000
  171 1 1 -100.143  -156.107    0.000
  172 1 1 -98.891  -153.939    0.000
  173 1 1 -100.143  -151.771    0.000
  174 1 1 -98.891  -149.603    0.000
  175 1 1 -100.143  -147.435    0.000
  176 1 1 -98.891  -145.267    0.000
  177 1 1 -100.143  -143.099    0.000
  178 1 1 -98.891  -140.930    0.000
  179 1 1 -100.143  -138.762    0.000
  180 1 1 -98.891  -136.594    0.000
  181 1 1 -100.143  -134.426    0.000
  182 1 1 -98.891  -132.258    0.000
  183 1 1 -100.143  -130.090    0.000
  184 1 1 -98.891  -127.921    0.000
  185 1 1 -100.143  -125.753    0.000
  186 1 1 -98.891  -123.585    0.000
  187 1 1 -100.143  -121.417    0.000
  188 1 1 -98.891  -119.249    0.000
  189 1 1 -100.143  -117.081    0.000
  190 1 1 -98.891  -114.912    0.000
  191 1 1 -100.143  -112.744    0.000
  192 1 1 -98.891  -110.576    0.000
  193 1 1 -100.143  -108.408    0.000
  194 1 1 -98.891  -106.240    0.000
  195 1 1 -100.143  -104.072    0.000
  196 1 1 -98.891  -101.904    0.000
  197 1 1 -100.143  -99.735    0.000
  198 1 1 -98.891  -97.567    0.000
  199 1 1 -100.143  -95.399    0.000
  200 1 1 -98.891  -93.231    0.000
  201 1 1 -100.143  -91.063    0.000
  202 1 1 -98.891  -88.895    0.000
  203 1 1 -100.143  -86.726    0.000
  204 1 1 -98.891  -84.558    0.000
  205 1 1 -100.143  -82.390    0.000
  206 1 1 -98.891  -80.222    0.000
  207 1 1 -100.143  -78.054    0.000
  208 1 1 -98.891  -75.886    0.000
  209 1 1 -100.143  -73.717    0.000
  210 1 1 -98.891  -71.549    0.000
  211 1 1 -100.143  -69.381    0.000
  212 1 1 -98.891  -67.213    0.000
  213 1 1 -100.143  -65.045    0.000
  214 1 1 -98.891  -62.877    0.000
  215 1 1 -100.143  -60.708    0.000
  216 1 1 -98.891  -58.540    0.000
  217 1 1 -100.143  -56.372    0.000
  218 1 1 -98.891  -54.204    0.000
  219 1 1 -100.143  -52.036    0.000
  220 1 1 -98.891  -49.868    0.000
  221 1 1 -100.143  -47.700    0.000
  222 1 1 -98.891  -45.531    0.000
  223 1 1 -100.143  -43.363    0.000
  224 1 1 -98.891  -41.195    0.000
  225 1 1 -100.143  -39.027    0.000
  226 1 1 -98.891  -36.859    0.000
  227 1 1 -100.143  -34.691    0.000
  228 1 1 -98.891  -32.522    0.000
  229 1 1 -100.143  -30.354    0.000
  230 1 1 -98.891  -28.186    0.000
  231 1 1 -100.143  -26.018    0.000
  232 1 1 -98.891  -23.850    0.000
  233 1 1 -100.143  -21.682    0.000
  234 1 1 -98.891  -19.513    0.000
  235 1 1 -100.143  -17.345    0.000
  236 1 1 -98.891  -15.177    0.000
  237 1 1 -100.143  -13.009    0.000
  238 1 1 -98.891  -10.841    0.000
  239 1 1 -100.143   -8.673    0.000
  240 1 1 -98.891   -6.504    0.000
  241 1 1 -100.143   -4.336    0.000
  242 1 1 -98.891   -2.168    0.000
  243 1 1 -100.143    0.000    0.000
  244 1 1 -98.891    2.168    0.000
  245 1 1 -100.143    4.336    0.000
  246 1 1 -98.891    6.504    0.000
  247 1 1 -100.143    8.673    0.000
  248 1 1 -98.891   10.841    0.000
  249 1 1 -100.143   13.009    0.000
  250 1 1 -98.891   15.177    0.000
  251 1 1 -100.143   17.345    0.000
  252 1 1 -98.891   19.513    0.000
  253 1 1 -100.143   21.682    0.000
  254 1 1 -98.891   23.850    0.000
  255 1 1 -100.143   26.018    0.000
  256 1 1 -98.891   28.186    0.000
  257 1 1 -100.143   30.354    0.000
  258 1 1 -98.891   32.522    0.000
  259 1 1 -100.143   34.691    0.000
  260 1 1 -98.891   36.859    0.000
  261 1 1 -100.143   39.027    0.000
  262 1 1 -98.891   41.195    0.000
  263 1 1 -100.143   43.363    0.000
  264 1 1 -98.891   45.531    0.000
  265 1 1 -100.143   47.700    0.000
  266 1 1 -98.891   49.868    0.000
  267 1 1 -100.143   52.036    0.000
  268 1 1 -98.891   54.204    0.000
  269 1 1 -100.143   56.372    0.000
  270 1 1 -98.891   58.540    0.000
  271 1 1 -100.143   60.708    0.000
  272 1 1 -98.891   62.877    0.000
  273 1 1 -97.639  -229.825    0.000
  274 1 1 -96.388  -227.657    0.000
  275 1 1 -97.639  -225.489    0.000
  276 1 1 -96.388  -223.320    0.000
  277 1 1 -97.639  -221.152    0.000
  278 1 1 -96.388  -218.984    0.000
  279 1 1 -97.639  -216.816    0.000
  280 1 1 -96.388  -214.648    0.000
  281 1 1 -97.639  -212.480    0.000
  282 1 1 -96.388  -210.311    0.000
  283 1 1 -97.639  -208.143    0.000
  284 1 1 -96.388  -205.975    0.000
  285 1 1 -97.639  -203.807    0.000
  286 1 1 -96.388  -201.639    0.000
  287 1 1 -97.639  -199.471    0.000
  288 1 1 -96.388  -197.303    0.000
  289 1 1 -97.639  -195.134    0.000
  290 1 1 -96.388  -192.966    0.000
  291 1 1 -97.639  -190.798    0.000
  292 1 1 -96.388  -188.630    0.000
  293 1 1 -97.639  -186.462    0.000
  294 1 1 -96.388  -184.294    0.000
  295 1 1 -97.639  -182.125    0.000
  296 1 1 -96.388  -179.957    0.000
  297 1 1 -97.639  -177.789    0.000
  298 1 1 -96.388  -175.621    0.000
  299 1 1 -97.639  -173.453    0.000
  300 1 1 -96.388  -171.285    0.000
  301 1 1 -97.639  -169.116    0.000
  302 1 1 -96.388  -166.948    0.000
  303 1 1 -97.639  -164.780    0.000
  304 1 1 -96.388  -162.612    0.000
  305 1 1 -97.639  -160.444    0.000
  306 1 1 -96.388  -158.276    0.000
  307 1 1 -97.639  -156.107    0.000
  308 1 1 -96.388  -153.939    0.000
  309 1 1 -97.639  -151.771    0.000
  310 1 1 -96.388  -149.603    0.000
  311 1 1 -97.639  -147.435    0.000
  312 1 1 -96.388  -145.267    0.000
  313 1 1 -97.639  -143.099    0.000
  314 1 1 -96.388  -140.930    0.000
  315 1 1 -97.639  -138.762    0.000
  316 1 1 -96.388  -136.594    0.000
  317 1 1 -97.639  -134.426    0.000
  318 1 1 -96.388  -132.258    0.000
  319 1 1 -97.639  -130.090    0.000
  320 1 1 -96.388  -127.921    0.000
  321 1 1 -97.639  -125.753    0.000
  322 1 1 -96.388  -123.585    0.000
  323 1 1 -97.639  -121.417    0.000
  324 1 1 -96.388  -119.249    0.000
  325 1 1 -97.639  -117.081    0.000
  326 1 1 -96.388  -114.912    0.000
  327 1 1 -97.639  -112.744    0.000
  328 1 1 -96.388  -110.576    0.000
  329 1 1 -97.639  -108.408    0.000
  330 1 1 -96.388  -106.240    0.000
  331 1 1 -97.639  -104.072    0.000
  332 1 1 -96.388  -101.904    0.000
  333 1 1 -97.639  -99.735    0.000
  334 1 1 -96.388  -97.567    0.000
  335 1 1 -97.639  -95.399    0.000
  336 1 1 -96.388  -93.231    0.000
  337 1 1 -97.639  -91.063    0.000
  338 1 1 -96.388  -88.895    0.000
  339 1 1 -97.639  -86.726    0.000
  340 1 1 -96.388  -84.558    0.000
  341 1 1 -97.639  -82.390    0.000
  342 1 1 -96.388  -80.222    0.000
  343 1 1 -97.639  -78.054    0.000
  344 1 1 -96.388  -75.886    0.000
  345 1 1 -97.639  -73.717    0.000
  346 1 1 -96.388  -71.549    0.000
  347 1 1 -97.639  -69.381    0.000
  348 1 1 -96.388  -67.213    0.000
  349 1 1 -97.639  -65.045    0.000
  350 1 1 -96.388  -62.877    0.000
  351 1 1 -97.639  -60.708    0.000
  352 1 1 -96.388  -58.540    0.000
  353 1 1 -97.639  -56.372    0.000
  354 1 1 -96.388  -54.204    0.000
  355 1 1 -97.639  -52.036    0.000
  356 1 1 -96.388  -49.868    0.000
  357 1 1 -97.639  -47.700    0.000
  358 1 1 -96.388  -45.531    0.000
  359 1 1 -97.639  -43.363    0.000
  360 1 1 -96.388  -41.195    0.000
  361 1 1 -97.639  -39.027    0.000
  362 1 1 -96.388  -36.859    0.000
  363 1 1 -97.639  -34.691    0.000
  364 1 1 -96.388  -32.522    0.000
  365 1 1 -97.639  -30.354    0.000
  366 1 1 -96.388  -28.186    0.000
  367 1 1 -97.639  -26.018    0.000
  368 1 1 -96.388  -23.850    0.000
  369 1 1 -97.639  -21.682    0.000
  370 1 1 -96.388  -19.513    0.000
  371 1 1 -97.639  -17.345    0.000
  372 1 1 -96.388  -15.177    0.000
  373 1 1 -97.639  -13.009    0.000
  374 1 1 -96.388  -10.841    0.000
  375 1 1 -97.639   -8.673    0.000
  376 1 1 -96.388   -6.504    0.000
  377 1 1 -97.639   -4.336    0.000
  378 1 1 -96.388   -2.168    0.000
  379 1 1 -97.639    0.000    0.000
  380 1 1 -96.388    2.168    0.000
  381 1 1 -97.639    4.336    0.000
  382 1 1 -96.388    6.504    0.000
  383 1 1 -97.639    8.673    0.000
  384 1 1 -96.388   10.841    0.000
  385 1 1 -97.639   13.009    0.000
  386 1 1 -96.388   15.177    0.000
  387 1 1 -97.639   17.345    0.000
  388 1 1 -96.388   19.513    0.000
  389 1 1 -97.639   21.682    0.000
  390 1 1 -96.388   23.850    0.000
  391 1 1 -97.639   26.018    0.000
  392 1 1 -96.388   28.186    0.000
  393 1 1 -97.639   30.354    0.000
  394 1 1 -96.388   32.522    0.000
  395 1 1 -97.639   34.691    0.000
  396 1 1 -96.388   36.859    0.000
  397 1 1 -97.639   39.027    0.000
  398 1 1 -96.388   41.195    0.000
  399 1 1 -97.639   43.363    0.000
  400 1 1 -96.388   45.531    0.000
  401 1 1 -97.639   47.700    0.000
  402 1 1 -96.388   49.868    0.000
  403 1 1 -97.639   52.036    0.000
  404 1 1 -96.388   54.204    0.000
  405 1 1 -97.639   56.372    0.000
  406 1 1 -96.388   58.540    0.000
  407 1 1 -97.639   60.708    0.000
  408 1 1 -96.388   62.877    0.000
  409 1 1 -95.136  -229.825    0.000
  410 1 1 -93.884  -227.657    0.000
  411 1 1 -95.136  -225.489    0.000
  412 1 1 -93.884  -223.320    0.000
  413 1 1 -95.136  -221.152    0.000
  414 1 1 -93.884  -218.984    0.000
  415 1 1 -95.136  -216.816    0.000
  416 1 1 -93.884  -214.648    0.000
  417 1 1 -95.136  -212.480    0.000
  418 1 1 -93.884  -210.311    0.000
  419 1 1 -95.136  -208.143    0.000
  420 1 1 -93.884  -205.975    0.000
  421 1 1 -95.136  -203.807    0.000
  422 1 1 -93.884  -201.639    0.000
  423 1 1 -95.136  -199.471    0.000
  424 1 1 -93.884  -197.303    0.000
  425 1 1 -95.136  -195.134    0.000
  426 1 1 -93.884  -192.966    0.000
  427 1 1 -95.136  -190.798    0.000
  428 1 1 -93.884  -188.630    0.000
  429 1 1 -95.136  -186.462    0.000
  430 1 1 -93.884  -184.294    0.000
  431 1 1 -95.136  -182.125    0.000
  432 1 1 -93.884  -179.957    0.000
  433 1 1 -95.136  -177.789    0.000
  434 1 1 -93.884  -175.621    0.000
  435 1 1 -95.136  -173.453    0.000
  436 1 1 -93.884  -171.285    0.000
  437 1 1 -95.136  -169.116    0.000
  438 1 1 -93.884  -166.948    0.000
  439 1 1 -95.136  -164.780    0.000
  440 1 1 -93.884  -162.612    0.000
  441 1 1 -95.136  -160.444    0.000
  442 1 1 -93.884  -158.276    0.000
  443 1 1 -95.136  -156.107    0.000
  444 1 1 -93.884  -153.939    0.000
  445 1 1 -95.136  -151.771    0.000
  446 1 1 -93.884  -149.603    0.000
  447 1 1 -95.136  -147.435    0.000
  448 1 1 -93.884  -145.267    0.000
  449 1 1 -95.136  -143.099    0.000
  450 1 1 -93.884  -140.930    0.000
  451 1 1 -95.136  -138.762    0.000
  452 1 1 -93.884  -136.594    0.000
  453 1 1 -95.136  -134.426    0.000
  454 1 1 -93.884  -132.258    0.000
  455 1 1 -95.136  -130.090    0.000
  456 1 1 -93.884  -127.921    0.000
  457 1 1 -95.136  -125.753    0.000
  458 1 1 -93.884  -123.585    0.000
  459 1 1 -95.136  -121.417    0.000
  460 1 1 -93.884  -119.249    0.000
  461 1 1 -95.136  -117.081    0.000
  462 1 1 -93.884  -114.912    0.000
  463 1 1 -95.136  -112.744    0.000
  464 1 1 -93.884  -110.576    0.000
  465 1 1 -95.136  -108.408    0.000
  466 1 1 -93.884  -106.240    0.000
  467 1 1 -95.136  -104.072    0.000
  468 1 1 -93.884  -101.904    0.000
  469 1 1 -95.136  -99.735    0.000
  470 1 1 -93.884  -97.567    0.000
  471 1 1 -95.136  -95.399    0.000
  472 1 1 -93.884  -93.231    0.000
  473 1 1 -95.136  -91.063    0.000
  474 1 1 -93.884  -88.895    0.000
  475 1 1 -95.136  -86.726    0.000
  476 1 1 -93.884  -84.558    0.000
  477 1 1 -95.136  -82.390    0.000
  478 1 1 -93.884  -80.222    0.000
  479 1 1 -95.136  -78.054    0.000
  480 1 1 -93.884  -75.886    0.000
  481 1 1 -95.136  -73.717    0.000
  482 1 1 -93.884  -71.549    0.000
  483 1 1 -95.136  -69.381    0.000
  484 1 1 -93.884  -67.213    0.000
  485 1 1 -95.136  -65.045    0.000
  486 1 1 -93.884  -62.877    0.000
  487 1 1 -95.136  -60.708    0.000
  488 1 1 -93.884  -58.540    0.000
  489 1 1 -95.136  -56.372    0.000
  490 1 1 -93.884  -54.204    0.000
  491 1 1 -95.136  -52.036    0.000
  492 1 1 -93.884  -49.868    0.000
  493 1 1 -95.136  -47.700    0.000
  494 1 1 -93.884  -45.531    0.000
  495 1 1 -95.136  -43.363    0.000
  496 1 1 -93.884  -41.195    0.000
  497 1 1 -95.136  -39.027    0.000
  498 1 1 -93.884  -36.859    0.000
  499 1 1 -95.136  -34.691    0.000
  500 1 1 -93.884  -32.522    0.000
  501 1 1 -95.136  -30.354    0.000
  502 1 1 -93.884  -28.186    0.000
  503 1 1 -95.136  -26.018    0.000
  504 1 1 -93.884  -23.850    0.000
  505 1 1 -95.136  -21.682    0.000
  506 1 1 -93.884  -19.513    0.000
  507 1 1 -95.136  -17.345    0.000
  508 1 1 -93.884  -15.177    0.000
  509 1 1 -95.136  -13.009    0.000
  510 1 1 -93.884  -10.841    0.000
  511 1 1 -95.136   -8.673    0.000
  512 1 1 -93.884   -6.504    0.000
  513 1 1 -95.136   -4.336    0.000
  514 1 1 -93.884   -2.168    0.000
  515 1 1 -95.136    0.000    0.000
  516 1 1 -93.884    2.168    0.000
  517 1 1 -95.136    4.336    0.000
  518 1 1 -93.884    6.504    0.000
  519 1 1 -95.136    8.673    0.000
  520 1 1 -93.884   10.841    0.000
  521 1 1 -95.136   13.009    0.000
  522 1 1 -93.884   15.177    0.000
  523 1 1 -95.136   17.345    0.000
  524 1 1 -93.884   19.513    0.000
  525 1 1 -95.136   21.682    0.000
  526 1 1 -93.884   23.850    0.000
  527 1 1 -95.136   26.018    0.000
  528 1 1 -93.884   28.186    0.000
  529 1 1 -95.136   30.354    0.000
  530 1 1 -93.884   32.522    0.000
  531 1 1 -95.136   34.691    0.000
  532 1 1 -93.884   36.859    0.000
  533 1 1 -95.136   39.027    0.000
  534 1 1 -93.884   41.195    0.000
  535 1 1 -95.136   43.363    0.000
  536 1 1 -93.884   45.531    0.000
  537 1 1 -95.136   47.700    0.000
  538 1 1 -93.884   49.868    0.000
  539 1 1 -95.136   52.036    0.000
  540 1 1 -93.884   54.204    0.000
  541 1 1 -95.136   56.372    0.000
  542 1 1 -93.884   58.540    0.000
  543 1 1 -95.136   60.708    0.000
  544 1 1 -93.884   62.877    0.000
  545 1 1 -92.632  -229.825    0.000
  546 1 1 -91.380  -227.657    0.000
  547 1 1 -92.632  -225.489    0.000
  548 1 1 -91.380  -223.320    0.000
  549 1 1 -92.632  -221.152    0.000
  550 1 1 -91.380  -218.984    0.000
  551 1 1 -92.632  -216.816    0.000
  552 1 1 -91.380  -214.648    0.000
  553 1 1 -92.632  -212.480    0.000
  554 1 1 -91.380  -210.311    0.000
  555 1 1 -92.632  -208.143    0.000
  556 1 1 -91.380  -205.975    0.000
  557 1 1 -92.632  -203.807    0.000
  558 1 1 -91.380  -201.639    0.000
  559 1 1 -92.632  -199.471    0.000
  560 1 1 -91.380  -197.303    0.000
  561 1 1 -92.632  -195.134    0.000
  562 1 1 -91.380  -192.966    0.000
  563 1 1 -92.632  -190.798    0.000
  564 1 1 -91.380  -188.630    0.000
  565 1 1 -92.632  -186.462    0.000
  566 1 1 -91.380  -184.294    0.000
  567 1 1 -92.632  -182.125    0.000
  568 1 1 -91.380  -179.957    0.000
  569 1 1 -92.632  -177.789    0.000
  570 1 1 -91.380  -175.621    0.000
  571 1 1 -92.632  -173.453    0.000
  572 1 1 -91.380  -171.285    0.000
  573 1 1 -92.632  -169.116    0.000
  574 1 1 -91.380  -166.948    0.000
  575 1 1 -92.632  -164.780    0.000
  576 1 1 -91.380  -162.612    0.000
  577 1 1 -92.632  -160.444    0.000
  578 1 1 -91.380  -158.276    0.000
  579 1 1 -92.632  -156.107    0.000
  580 1 1 -91.380  -153.939    0.000
  581 1 1 -92.632  -151.771    0.000
  582 1 1 -91.380  -149.603    0.000
  583 1 1 -92.632  -147.435    0.000
  584 1 1 -91.380  -145.267    0.000
  585 1 1 -92.632  -143.099    0.000
  586 1 1 -91.380  -140.930    0.000
  587 1 1 -92.632  -138.762    0.000
  588 1 1 -91.380  -136.594    0.000
  589 1 1 -92.632  -134.426    0.000
  590 1 1 -91.380  -132.258    0.000
  591 1 1 -92.632  -130.090    0.000
  592 1 1 -91.380  -127.921    0.000
  593 1 1 -92.632  -125.753    0.000
  594 1 1 -91.380  -123.585    0.000
  595 1 1 -92.632  -121.417    0.000
  596 1 1 -91.380  -119.249    0.000
  597 1 1 -92.632  -117.081    0.000
  598 1 1 -91.380  -114.912    0.000
  599 1 1 -92.632  -112.744    0.000
  600 1 1 -91.380  -110.576    0.000
  601 1 1 -92.632  -108.408    0.000
  602 1 1 -91.380  -106.240    0.000
  603 1 1 -92.632  -104.072    0.000
  604 1 1 -91.380  -101.904    0.000
  605 1 1 -92.632  -99.735    0.000
  606 1 1 -91.380  -97.567    0.000
  607 1 1 -92.632  -95.399    0.000
  608 1 1 -91.380  -93.231    0.000
  609 1 1 -92.632  -91.063    0.000
  610 1 1 -91.380  -88.895    0.000
  611 1 1 -92.632  -86.726    0.000
  612 1 1 -91.380  -84.558    0.000
  613 1 1 -92.632  -82.390    0.000
  614 1 1 -91.380  -80.222    0.000
  615 1 1 -92.632  -78.054    0.000
  616 1 1 -91.380  -75.886    0.000
  617 1 1 -92.632  -73.717    0.000
  618 1 1 -91.380  -71.549    0.000
  619 1 1 -92.632  -69.381    0.000
  620 1 1 -91.380  -67.213    0.000
  621 1 1 -92.632  -65.045    0.000
  622 1 1 -91.380  -62.877    0.000
  623 1 1 -92.632  -60.708    0.000
  624 1 1 -91.380  -58.540    0.000
  625 1 1 -92.632  -56.372    0.000
  626 1 1 -91.380  -54.204    0.000
  627 1 1 -92.632  -52.036    0.000
  628 1 1 -91.380  -49.868    0.000
  629 1 1 -92.632  -47.700    0.000
  630 1 1 -91.380  -45.531    0.000
  631 1 1 -92.632  -43.363    0.000
  632 1 1 -91.380  -41.195    0.000
  633 1 1 -92.632  -39.027    0.000
  634 1 1 -91.380  -36.859    0.000
  635 1 1 -92.632  -34.691    0.000
  636 1 1 -91.380  -32.522    0.000
  637 1 1 -92.632  -30.354    0.000
  638 1 1 -91.380  -28.186    0.000
  639 1 1 -92.632  -26.018    0.000
  640 1 1 -91.380  -23.850    0.000
  641 1 1 -92.632  -21.682    0.000
  642 1 1 -91.380  -19.513    0.000
  643 1 1 -92.632  -17.345    0.000
  644 1 1 -91.380  -15.177    0.000
  645 1 1 -92.632  -13.009    0.000
  646 1 1 -91.380  -10.841    0.000
  647 1 1 -92.632   -8.673    0.000
  648 1 1 -91.380   -6.504    0.000
  649 1 1 -92.632   -4.336    0.000
  650 1 1 -91.380   -2.168    0.000
  651 1 1 -92.632    0.000    0.000
  652 1 1 -91.380    2.168    0.000
  653 1 1 -92.632    4.336    0.000
  654 1 1 -91.380    6.504    0.000
  655 1 1 -92.632    8.673    0.000
  656 1 1 -91.380   10.841    0.000
  657 1 1 -92.632   13.009    0.000
  658 1 1 -91.380   15.177    0.000
  659 1 1 -92.632   17.345    0.000
  660 1 1 -91.380   19.513    0.000
  661 1 1 -92.632   21.682    0.000
  662 1 1 -91.380   23.850    0.000
  663 1 1 -92.632   26.018    0.000
  664 1 1 -91.380   28.186    0.000
  665 1 1 -92.632   30.354    0.000
  666 1 1 -91.380   32.522    0.000
  667 1 1 -92.632   34.691    0.000
  668 1 1 -91.380   36.859    0.000
  669 1 1 -92.632   39.027    0.000
  670 1 1 -91.380   41.195    0.000
  671 1 1 -92.632   43.363    0.000
  672 1 1 -91.380   45.531    0.000
  673 1 1 -92.632   47.700    0.000
  674 1 1 -91.380   49.868    0.000
  675 1 1 -92.632   52.036    0.000
  676 1 1 -91.380   54.204    0.000
  677 1 1 -92.632   56.372    0.000
  678 1 1 -91.380   58.540    0.000
  679 1 1 -92.632   60.708    0.000
  680 1 1 -91.380   62.877    0.000
  681 1 1 -90.129  -229.825    0.000
  682 1 1 -88.877  -227.657    0.000
  683 1 1 -90.129  -225.489    0.000
  684 1 1 -88.877  -223.320    0.000
  685 1 1 -90.129  -221.152    0.000
  686 1 1 -88.877  -218.984    0.000
  687 1 1 -90.129  -216.816    0.000
  688 1 1 -88.877  -214.648    0.000
  689 1 1 -90.129  -212.480    0.000
  690 1 1 -88.877  -210.311    0.000
  691 1 1 -90.129  -208.143    0.000
  692 1 1 -88.877  -205.975    0.000
  693 1 1 -90.129  -203.807    0.000
  694 1 1 -88.877  -201.639    0.000
  695 1 1 -90.129  -199.471    0.000
  696 1 1 -88.877  -197.303    0.000
  697 1 1 -90.129  -195.134    0.000
  698 1 1 -88.877  -192.966    0.000
  699 1 1 -90.129  -190.798    0.000
  700 1 1 -88.877  -188.630    0.000
  701 1 1 -90.129  -186.462    0.000
  702 1 1 -88.877  -184.294    0.000
  703 1 1 -90.129  -182.125    0.000
  704 1 1 -88.877  -179.957    0.000
  705 1 1 -90.129  -177.789    0.000
  706 1 1 -88.877  -175.621    0.000
  707 1 1 -90.129  -173.453    0.000
  708 1 1 -88.877  -171.285    0.000
  709 1 1 -90.129  -169.116    0.000
  710 1 1 -88.877  -166.948    0.000
  711 1 1 -90.129  -164.780    0.000
  712 1 1 -88.877  -162.612    0.000
  713 1 1 -90.129  -160.444    0.000
  714 1 1 -88.877  -158.276    0.000
  715 1 1 -90.129  -156.107    0.000
  716 1 1 -88.877  -153.939    0.000
  717 1 1 -90.129  -151.771    0.000
  718 1 1 -88.877  -149.603    0.000
  719 1 1 -90.129  -147.435    0.000
  720 1 1 -88.877  -145.267    0.000
  721 1 1 -90.129  -143.099    0.000
  722 1 1 -88.877  -140.930    0.000
  723 1 1 -90.129  -138.762    0.000
  724 1 1 -88.877  -136.594    0.000
  725 1 1 -90.129  -134.426    0.000
  726 1 1 -88.877  -132.258    0.000
  727 1 1 -90.129  -130.090    0.000
  728 1 1 -88.877  -127.921    0.000
  729 1 1 -90.129  -125.753    0.000
  730 1 1 -88.877  -123.585    0.000
  731 1 1 -90.129  -121.417    0.000
  732 1 1 -88.877  -119.249    0.000
  733 1 1 -90.129  -117.081    0.000
  734 1 1 -88.877  -114.912    0.000
  735 1 1 -90.129  -112.744    0.000
  736 1 1 -88.877  -110.576    0.000
  737 1 1 -90.129  -108.408    0.000
  738 1 1 -88.877  -106.240    0.000
  739 1 1 -90.129  -104.072    0.000
  740 1 1 -88.877  -101.904    0.000
  741 1 1 -90.129  -99.735    0.000
  742 1 1 -88.877  -97.567    0.000
  743 1 1 -90.129  -95.399    0.000
  744 1 1 -88.877  -93.231    0.000
  745 1 1 -90.129  -91.063    0.000
  746 1 1 -88.877  -88.895    0.000
  747 1 1 -90.129  -86.726    0.000
  748 1 1 -88.877  -84.558    0.000
  749 1 1 -90.129  -82.390    0.000
  750 1 1 -88.877  -80.222    0.000
  751 1 1 -90.129  -78.054    0.000
  752 1 1 -88.877  -75.886    0.000
  753 1 1 -90.129  -73.717    0.000
  754 1 1 -88.877  -71.549    0.000
  755 1 1 -90.129  -69.381    0.000
  756 1 1 -88.877  -67.213    0.000
  757 1 1 -90.129  -65.045    0.000
  758 1 1 -88.877  -62.877    0.000
  759 1 1 -90.129  -60.708    0.000
  760 1 1 -88.877  -58.540    0.000
  761 1 1 -90.129  -56.372    0.000
  762 1 1 -88.877  -54.204    0.000
  763 1 1 -90.129  -52.036    0.000
  764 1 1 -88.877  -49.868    0.000
  765 1 1 -90.129  -47.700    0.000
  766 1 1 -88.877  -45.531    0.000
  767 1 1 -90.129  -43.363    0.000
  768 1 1 -88.877  -41.195    0.000
  769 1 1 -90.129  -39.027    0.000
  770 1 1 -88.877  -36.859    0.000
  771 1 1 -90.129  -34.691    0.000
  772 1 1 -88.877  -32.522    0.000
  773 1 1 -90.129  -30.354    0.000
  774 1 1 -88.877  -28.186    0.000
  775 1 1 -90.129  -26.018    0.000
  776 1 1 -88.877  -23.850    0.000
  777 1 1 -90.129  -21.682    0.000
  778 1 1 -88.877  -19.513    0.000
  779 1 1 -90.129  -17.345    0.000
  780 1 1 -88.877  -15.177    0.000
  781 1 1 -90.129  -13.009    0.000
  782 1 1 -88.877  -10.841    0.000
  783 1 1 -90.129   -8.673    0.000
  784 1 1 -88.877   -6.504    0.000
  785 1 1 -90.129   -4.336    0.000
  786 1 1 -88.877   -2.168    0.000
  787 1 1 -90.129    0.000    0.000
  788 1 1 -88.877    2.168    0.000
  789 1 1 -90.129    4.336    0.000
  790 1 1 -88.877    6.504    0.000
  791 1 1 -90.129    8.673    0.000
  792 1 1 -88.877   10.841    0.000
  793 1 1 -90.129   13.009    0.000
  794 1 1 -88.877   15.177    0.000
  795 1 1 -90.129   17.345    0.000
  796 1 1 -88.877   19.513    0.000
  797 1 1 -90.129   21.682    0.000
  798 1 1 -88.877   23.850    0.000
  799 1 1 -90.129   26.018    0.000
  800 1 1 -88.877   28.186    0.000
  801 1 1 -90.129   30.354    0.000
  802 1 1 -88.877   32.522    0.000
  803 1 1 -90.129   34.691    0.000
  804 1 1 -88.877   36.859    0.000
  805 1 1 -90.129   39.027    0.000
  806 1 1 -88.877   41.195    0.000
  807 1 1 -90.129   43.363    0.000
  808 1 1 -88.877   45.531    0.000
  809 1 1 -90.129   47.700    0.000
  810 1 1 -88.877   49.868    0.000
  811 1 1 -90.129   52.036    0.000