#Lammps data file

33324 atoms
 2280 bonds
    3 atom types
    1 bond types

-51.6498 199.2205 xlo xhi
-44.7300 255.6000 ylo yhi
-30.0000  30.0000 zlo zhi

Masses

 1 12
 2 12
 3 12

Atoms #bond

    1 1 1   0.000    0.000    3.350
    2 1 1   1.175    2.161    3.350
    3 1 1   1.065    6.419    3.350
    4 1 1   0.956   10.678    3.350
    5 1 1   0.847   14.937    3.350
    6 1 1   0.738   19.195    3.350
    7 1 1   0.628   23.454    3.350
    8 1 1   0.519   27.712    3.350
    9 1 1   0.410   31.971    3.350
   10 1 1   0.300   36.230    3.350
   11 1 1   0.191   40.488    3.350
   12 1 1   0.082   44.747    3.350
   13 1 1  -0.028   49.005    3.350
   14 1 1  -0.137   53.264    3.350
   15 1 1  -0.246   57.523    3.350
   16 1 1  -0.355   61.781    3.350
   17 1 1  -0.465   66.040    3.350
   18 1 1  -0.574   70.298    3.350
   19 1 1  -0.683   74.557    3.350
   20 1 1  -0.793   78.816    3.350
   21 1 1  -0.902   83.074    3.350
   22 1 1  -1.011   87.333    3.350
   23 1 1  -1.120   91.591    3.350
   24 1 1  -1.230   95.850    3.350
   25 1 1   2.459    0.063    3.350
   26 1 1   3.633    2.224    3.350
   27 1 1   2.349    4.322    3.350
   28 1 1   3.524    6.483    3.350
   29 1 1   2.240    8.580    3.350
   30 1 1   3.415   10.741    3.350
   31 1 1   2.131   12.839    3.350
   32 1 1   3.306   15.000    3.350
   33 1 1   2.022   17.097    3.350
   34 1 1   3.196   19.258    3.350
   35 1 1   1.912   21.356    3.350
   36 1 1   3.087   23.517    3.350
   37 1 1   1.803   25.615    3.350
   38 1 1   2.978   27.776    3.350
   39 1 1   1.694   29.873    3.350
   40 1 1   2.868   32.034    3.350
   41 1 1   1.584   34.132    3.350
   42 1 1   2.759   36.293    3.350
   43 1 1   1.475   38.390    3.350
   44 1 1   2.650   40.551    3.350
   45 1 1   1.366   42.649    3.350
   46 1 1   2.540   44.810    3.350
   47 1 1   1.256   46.908    3.350
   48 1 1   2.431   49.069    3.350
   49 1 1   1.147   51.166    3.350
   50 1 1   2.322   53.327    3.350
   51 1 1   1.038   55.425    3.350
   52 1 1   2.213   57.586    3.350
   53 1 1   0.929   59.683    3.350
   54 1 1   2.103   61.844    3.350
   55 1 1   0.819   63.942    3.350
   56 1 1   1.994   66.103    3.350
   57 1 1   0.710   68.201    3.350
   58 1 1   1.885   70.362    3.350
   59 1 1   0.601   72.459    3.350
   60 1 1   1.775   74.620    3.350
   61 1 1   0.491   76.718    3.350
   62 1 1   1.666   78.879    3.350
   63 1 1   0.382   80.976    3.350
   64 1 1   1.557   83.137    3.350
   65 1 1   0.273   85.235    3.350
   66 1 1   1.448   87.396    3.350
   67 1 1   0.164   89.494    3.350
   68 1 1   1.338   91.655    3.350
   69 1 1   0.054   93.752    3.350
   70 1 1   1.229   95.913    3.350
   71 1 1  -0.055   98.011    3.350
   72 1 1   1.120  100.172    3.350
   73 1 1  -0.164  102.269    3.350
   74 1 1   1.010  104.430    3.350
   75 1 1  -0.274  106.528    3.350
   76 1 1   0.901  108.689    3.350
   77 1 1  -0.383  110.787    3.350
   78 1 1   0.792  112.947    3.350
   79 1 1  -0.492  115.045    3.350
   80 1 1   0.682  117.206    3.350
   81 1 1  -0.602  119.304    3.350
   82 1 1   0.573  121.465    3.350
   83 1 1  -0.711  123.562    3.350
   84 1 1   0.464  125.723    3.350
   85 1 1  -0.820  127.821    3.350
   86 1 1   0.355  129.982    3.350
   87 1 1  -0.929  132.080    3.350
   88 1 1   0.245  134.240    3.350
   89 1 1  -1.039  136.338    3.350
   90 1 1   0.136  138.499    3.350
   91 1 1  -1.148  140.597    3.350
   92 1 1   4.917    0.126    3.350
   93 1 1   6.092    2.287    3.350
   94 1 1   4.808    4.385    3.350
   95 1 1   5.983    6.546    3.350
   96 1 1   4.699    8.643    3.350
   97 1 1   5.874   10.804    3.350
   98 1 1   4.590   12.902    3.350
   99 1 1   5.764   15.063    3.350
  100 1 1   4.480   17.161    3.350
  101 1 1   5.655   19.321    3.350
  102 1 1   4.371   21.419    3.350
  103 1 1   5.546   23.580    3.350
  104 1 1   4.262   25.678    3.350
  105 1 1   5.436   27.839    3.350
  106 1 1   4.152   29.936    3.350
  107 1 1   5.327   32.097    3.350
  108 1 1   4.043   34.195    3.350
  109 1 1   5.218   36.356    3.350
  110 1 1   3.934   38.454    3.350
  111 1 1   5.108   40.614    3.350
  112 1 1   3.824   42.712    3.350
  113 1 1   4.999   44.873    3.350
  114 1 1   3.715   46.971    3.350
  115 1 1   4.890   49.132    3.350
  116 1 1   3.606   51.229    3.350
  117 1 1   4.781   53.390    3.350
  118 1 1   3.497   55.488    3.350
  119 1 1   4.671   57.649    3.350
  120 1 1   3.387   59.747    3.350
  121 1 1   4.562   61.907    3.350
  122 1 1   3.278   64.005    3.350
  123 1 1   4.453   66.166    3.350
  124 1 1   3.169   68.264    3.350
  125 1 1   4.343   70.425    3.350
  126 1 1   3.059   72.522    3.350
  127 1 1   4.234   74.683    3.350
  128 1 1   2.950   76.781    3.350
  129 1 1   4.125   78.942    3.350
  130 1 1   2.841   81.040    3.350
  131 1 1   4.016   83.200    3.350
  132 1 1   2.732   85.298    3.350
  133 1 1   3.906   87.459    3.350
  134 1 1   2.622   89.557    3.350
  135 1 1   3.797   91.718    3.350
  136 1 1   2.513   93.815    3.350
  137 1 1   3.688   95.976    3.350
  138 1 1   2.404   98.074    3.350
  139 1 1   3.578  100.235    3.350
  140 1 1   2.294  102.333    3.350
  141 1 1   3.469  104.493    3.350
  142 1 1   2.185  106.591    3.350
  143 1 1   3.360  108.752    3.350
  144 1 1   2.076  110.850    3.350
  145 1 1   3.250  113.011    3.350
  146 1 1   1.966  115.108    3.350
  147 1 1   3.141  117.269    3.350
  148 1 1   1.857  119.367    3.350
  149 1 1   3.032  121.528    3.350
  150 1 1   1.748  123.626    3.350
  151 1 1   2.923  125.786    3.350
  152 1 1   1.639  127.884    3.350
  153 1 1   2.813  130.045    3.350
  154 1 1   1.529  132.143    3.350
  155 1 1   2.704  134.304    3.350
  156 1 1   1.420  136.401    3.350
  157 1 1   7.376    0.189    3.350
  158 1 1   8.551    2.350    3.350
  159 1 1   7.267    4.448    3.350
  160 1 1   8.442    6.609    3.350
  161 1 1   7.158    8.706    3.350
  162 1 1   8.332   10.867    3.350
  163 1 1   7.048   12.965    3.350
  164 1 1   8.223   15.126    3.350
  165 1 1   6.939   17.224    3.350
  166 1 1   8.114   19.385    3.350
  167 1 1   6.830   21.482    3.350
  168 1 1   8.004   23.643    3.350
  169 1 1   6.720   25.741    3.350
  170 1 1   7.895   27.902    3.350
  171 1 1   6.611   29.999    3.350
  172 1 1   7.786   32.160    3.350
  173 1 1   6.502   34.258    3.350
  174 1 1   7.676   36.419    3.350
  175 1 1   6.392   38.517    3.350
  176 1 1   7.567   40.678    3.350
  177 1 1   6.283   42.775    3.350
  178 1 1   7.458   44.936    3.350
  179 1 1   6.174   47.034    3.350
  180 1 1   7.349   49.195    3.350
  181 1 1   6.065   51.292    3.350
  182 1 1   7.239   53.453    3.350
  183 1 1   5.955   55.551    3.350
  184 1 1   7.130   57.712    3.350
  185 1 1   5.846   59.810    3.350
  186 1 1   7.021   61.971    3.350
  187 1 1   5.737   64.068    3.350
  188 1 1   6.911   66.229    3.350
  189 1 1   5.627   68.327    3.350
  190 1 1   6.802   70.488    3.350
  191 1 1   5.518   72.585    3.350
  192 1 1   6.693   74.746    3.350
  193 1 1   5.409   76.844    3.350
  194 1 1   6.584   79.005    3.350
  195 1 1   5.300   81.103    3.350
  196 1 1   6.474   83.264    3.350
  197 1 1   5.190   85.361    3.350
  198 1 1   6.365   87.522    3.350
  199 1 1   5.081   89.620    3.350
  200 1 1   6.256   91.781    3.350
  201 1 1   4.972   93.878    3.350
  202 1 1   6.146   96.039    3.350
  203 1 1   4.862   98.137    3.350
  204 1 1   6.037  100.298    3.350
  205 1 1   4.753  102.396    3.350
  206 1 1   5.928  104.556    3.350
  207 1 1   4.644  106.654    3.350
  208 1 1   5.818  108.815    3.350
  209 1 1   4.534  110.913    3.350
  210 1 1   5.709  113.074    3.350
  211 1 1   4.425  115.171    3.350
  212 1 1   5.600  117.332    3.350
  213 1 1   4.316  119.430    3.350
  214 1 1   5.491  121.591    3.350
  215 1 1   4.207  123.689    3.350
  216 1 1   5.381  125.849    3.350
  217 1 1   4.097  127.947    3.350
  218 1 1   5.272  130.108    3.350
  219 1 1   3.988  132.206    3.350
  220 1 1   9.835    0.252    3.350
  221 1 1  11.010    2.413    3.350
  222 1 1   9.726    4.511    3.350
  223 1 1  10.900    6.672    3.350
  224 1 1   9.616    8.770    3.350
  225 1 1  10.791   10.930    3.350
  226 1 1   9.507   13.028    3.350
  227 1 1  10.682   15.189    3.350
  228 1 1   9.398   17.287    3.350
  229 1 1  10.572   19.448    3.350
  230 1 1   9.288   21.545    3.350
  231 1 1  10.463   23.706    3.350
  232 1 1   9.179   25.804    3.350
  233 1 1  10.354   27.965    3.350
  234 1 1   9.070   30.063    3.350
  235 1 1  10.244   32.223    3.350
  236 1 1   8.960   34.321    3.350
  237 1 1  10.135   36.482    3.350
  238 1 1   8.851   38.580    3.350
  239 1 1  10.026   40.741    3.350
  240 1 1   8.742   42.838    3.350
  241 1 1   9.917   44.999    3.350
  242 1 1   8.633   47.097    3.350
  243 1 1   9.807   49.258    3.350
  244 1 1   8.523   51.356    3.350
  245 1 1   9.698   53.516    3.350
  246 1 1   8.414   55.614    3.350
  247 1 1   9.589   57.775    3.350
  248 1 1   8.305   59.873    3.350
  249 1 1   9.479   62.034    3.350
  250 1 1   8.195   64.131    3.350
  251 1 1   9.370   66.292    3.350
  252 1 1   8.086   68.390    3.350
  253 1 1   9.261   70.551    3.350
  254 1 1   7.977   72.649    3.350
  255 1 1   9.152   74.809    3.350
  256 1 1   7.868   76.907    3.350
  257 1 1   9.042   79.068    3.350
  258 1 1   7.758   81.166    3.350
  259 1 1   8.933   83.327    3.350
  260 1 1   7.649   85.424    3.350
  261 1 1   8.824   87.585    3.350
  262 1 1   7.540   89.683    3.350
  263 1 1   8.714   91.844    3.350
  264 1 1   7.430   93.942    3.350
  265 1 1   8.605   96.102    3.350
  266 1 1   7.321   98.200    3.350
  267 1 1   8.496  100.361    3.350
  268 1 1   7.212  102.459    3.350
  269 1 1   8.386  104.620    3.350
  270 1 1   7.102  106.717    3.350
  271 1 1   8.277  108.878    3.350
  272 1 1   6.993  110.976    3.350
  273 1 1   8.168  113.137    3.350
  274 1 1   6.884  115.235    3.350
  275 1 1   8.059  117.395    3.350
  276 1 1   6.775  119.493    3.350
  277 1 1   7.949  121.654    3.350
  278 1 1   6.665  123.752    3.350
  279 1 1   7.840  125.913    3.350
  280 1 1   6.556  128.010    3.350
  281 1 1  12.294    0.316    3.350
  282 1 1  13.468    2.476    3.350
  283 1 1  12.184    4.574    3.350
  284 1 1  13.359    6.735    3.350
  285 1 1  12.075    8.833    3.350
  286 1 1  13.250   10.994    3.350
  287 1 1  11.966   13.091    3.350
  288 1 1  13.140   15.252    3.350
  289 1 1  11.856   17.350    3.350
  290 1 1  13.031   19.511    3.350
  291 1 1  11.747   21.608    3.350
  292 1 1  12.922   23.769    3.350
  293 1 1  11.638   25.867    3.350
  294 1 1  12.812   28.028    3.350
  295 1 1  11.528   30.126    3.350
  296 1 1  12.703   32.287    3.350
  297 1 1  11.419   34.384    3.350
  298 1 1  12.594   36.545    3.350
  299 1 1  11.310   38.643    3.350
  300 1 1  12.485   40.804    3.350
  301 1 1  11.201   42.901    3.350
  302 1 1  12.375   45.062    3.350
  303 1 1  11.091   47.160    3.350
  304 1 1  12.266   49.321    3.350
  305 1 1  10.982   51.419    3.350
  306 1 1  12.157   53.580    3.350
  307 1 1  10.873   55.677    3.350
  308 1 1  12.047   57.838    3.350
  309 1 1  10.763   59.936    3.350
  310 1 1  11.938   62.097    3.350
  311 1 1  10.654   64.194    3.350
  312 1 1  11.829   66.355    3.350
  313 1 1  10.545   68.453    3.350
  314 1 1  11.720   70.614    3.350
  315 1 1  10.436   72.712    3.350
  316 1 1  11.610   74.873    3.350
  317 1 1  10.326   76.970    3.350
  318 1 1  11.501   79.131    3.350
  319 1 1  10.217   81.229    3.350
  320 1 1  11.392   83.390    3.350
  321 1 1  10.108   85.487    3.350
  322 1 1  11.282   87.648    3.350
  323 1 1   9.998   89.746    3.350
  324 1 1  11.173   91.907    3.350
  325 1 1   9.889   94.005    3.350
  326 1 1  11.064   96.166    3.350
  327 1 1   9.780   98.263    3.350
  328 1 1  10.954  100.424    3.350
  329 1 1   9.670  102.522    3.350
  330 1 1  10.845  104.683    3.350
  331 1 1   9.561  106.780    3.350
  332 1 1  10.736  108.941    3.350
  333 1 1   9.452  111.039    3.350
  334 1 1  10.627  113.200    3.350
  335 1 1   9.343  115.298    3.350
  336 1 1  10.517  117.458    3.350
  337 1 1   9.233  119.556    3.350
  338 1 1  10.408  121.717    3.350
  339 1 1   9.124  123.815    3.350
  340 1 1  14.752    0.379    3.350
  341 1 1  15.927    2.539    3.350
  342 1 1  14.643    4.637    3.350
  343 1 1  15.818    6.798    3.350
  344 1 1  14.534    8.896    3.350
  345 1 1  15.708   11.057    3.350
  346 1 1  14.424   13.154    3.350
  347 1 1  15.599   15.315    3.350
  348 1 1  14.315   17.413    3.350
  349 1 1  15.490   19.574    3.350
  350 1 1  14.206   21.672    3.350
  351 1 1  15.380   23.832    3.350
  352 1 1  14.096   25.930    3.350
  353 1 1  15.271   28.091    3.350
  354 1 1  13.987   30.189    3.350
  355 1 1  15.162   32.350    3.350
  356 1 1  13.878   34.447    3.350
  357 1 1  15.053   36.608    3.350
  358 1 1  13.769   38.706    3.350
  359 1 1  14.943   40.867    3.350
  360 1 1  13.659   42.965    3.350
  361 1 1  14.834   45.125    3.350
  362 1 1  13.550   47.223    3.350
  363 1 1  14.725   49.384    3.350
  364 1 1  13.441   51.482    3.350
  365 1 1  14.615   53.643    3.350
  366 1 1  13.331   55.740    3.350
  367 1 1  14.506   57.901    3.350
  368 1 1  13.222   59.999    3.350
  369 1 1  14.397   62.160    3.350
  370 1 1  13.113   64.258    3.350
  371 1 1  14.288   66.418    3.350
  372 1 1  13.004   68.516    3.350
  373 1 1  14.178   70.677    3.350
  374 1 1  12.894   72.775    3.350
  375 1 1  14.069   74.936    3.350
  376 1 1  12.785   77.033    3.350
  377 1 1  13.960   79.194    3.350
  378 1 1  12.676   81.292    3.350
  379 1 1  13.850   83.453    3.350
  380 1 1  12.566   85.551    3.350
  381 1 1  13.741   87.711    3.350
  382 1 1  12.457   89.809    3.350
  383 1 1  13.632   91.970    3.350
  384 1 1  12.348   94.068    3.350
  385 1 1  13.522   96.229    3.350
  386 1 1  12.238   98.326    3.350
  387 1 1  13.413  100.487    3.350
  388 1 1  12.129  102.585    3.350
  389 1 1  13.304  104.746    3.350
  390 1 1  12.020  106.844    3.350
  391 1 1  13.195  109.004    3.350
  392 1 1  11.911  111.102    3.350
  393 1 1  13.085  113.263    3.350
  394 1 1  11.801  115.361    3.350
  395 1 1  12.976  117.522    3.350
  396 1 1  11.692  119.619    3.350
  397 1 1  17.211    0.442    3.350
  398 1 1  18.386    2.603    3.350
  399 1 1  17.102    4.700    3.350
  400 1 1  18.276    6.861    3.350
  401 1 1  16.992    8.959    3.350
  402 1 1  18.167   11.120    3.350
  403 1 1  16.883   13.217    3.350
  404 1 1  18.058   15.378    3.350
  405 1 1  16.774   17.476    3.350
  406 1 1  17.948   19.637    3.350
  407 1 1  16.664   21.735    3.350
  408 1 1  17.839   23.896    3.350
  409 1 1  16.555   25.993    3.350
  410 1 1  17.730   28.154    3.350
  411 1 1  16.446   30.252    3.350
  412 1 1  17.621   32.413    3.350
  413 1 1  16.337   34.510    3.350
  414 1 1  17.511   36.671    3.350
  415 1 1  16.227   38.769    3.350
  416 1 1  17.402   40.930    3.350
  417 1 1  16.118   43.028    3.350
  418 1 1  17.293   45.189    3.350
  419 1 1  16.009   47.286    3.350
  420 1 1  17.183   49.447    3.350
  421 1 1  15.899   51.545    3.350
  422 1 1  17.074   53.706    3.350
  423 1 1  15.790   55.803    3.350
  424 1 1  16.965   57.964    3.350
  425 1 1  15.681   60.062    3.350
  426 1 1  16.856   62.223    3.350
  427 1 1  15.572   64.321    3.350
  428 1 1  16.746   66.482    3.350
  429 1 1  15.462   68.579    3.350
  430 1 1  16.637   70.740    3.350
  431 1 1  15.353   72.838    3.350
  432 1 1  16.528   74.999    3.350
  433 1 1  15.244   77.096    3.350
  434 1 1  16.418   79.257    3.350
  435 1 1  15.134   81.355    3.350
  436 1 1  16.309   83.516    3.350
  437 1 1  15.025   85.614    3.350
  438 1 1  16.200   87.775    3.350
  439 1 1  14.916   89.872    3.350
  440 1 1  16.090   92.033    3.350
  441 1 1  14.806   94.131    3.350
  442 1 1  15.981   96.292    3.350
  443 1 1  14.697   98.389    3.350
  444 1 1  15.872  100.550    3.350
  445 1 1  14.588  102.648    3.350
  446 1 1  15.763  104.809    3.350
  447 1 1  14.479  106.907    3.350
  448 1 1  15.653  109.067    3.350
  449 1 1  14.369  111.165    3.350
  450 1 1  15.544  113.326    3.350
  451 1 1  14.260  115.424    3.350
  452 1 1  19.670    0.505    3.350
  453 1 1  20.844    2.666    3.350
  454 1 1  19.560    4.763    3.350
  455 1 1  20.735    6.924    3.350
  456 1 1  19.451    9.022    3.350
  457 1 1  20.626   11.183    3.350
  458 1 1  19.342   13.281    3.350
  459 1 1  20.516   15.441    3.350
  460 1 1  19.232   17.539    3.350
  461 1 1  20.407   19.700    3.350
  462 1 1  19.123   21.798    3.350
  463 1 1  20.298   23.959    3.350
  464 1 1  19.014   26.056    3.350
  465 1 1  20.189   28.217    3.350
  466 1 1  18.905   30.315    3.350
  467 1 1  20.079   32.476    3.350
  468 1 1  18.795   34.574    3.350
  469 1 1  19.970   36.734    3.350
  470 1 1  18.686   38.832    3.350
  471 1 1  19.861   40.993    3.350
  472 1 1  18.577   43.091    3.350
  473 1 1  19.751   45.252    3.350
  474 1 1  18.467   47.349    3.350
  475 1 1  19.642   49.510    3.350
  476 1 1  18.358   51.608    3.350
  477 1 1  19.533   53.769    3.350
  478 1 1  18.249   55.867    3.350
  479 1 1  19.424   58.027    3.350
  480 1 1  18.140   60.125    3.350
  481 1 1  19.314   62.286    3.350
  482 1 1  18.030   64.384    3.350
  483 1 1  19.205   66.545    3.350
  484 1 1  17.921   68.642    3.350
  485 1 1  19.096   70.803    3.350
  486 1 1  17.812   72.901    3.350
  487 1 1  18.986   75.062    3.350
  488 1 1  17.702   77.160    3.350
  489 1 1  18.877   79.320    3.350
  490 1 1  17.593   81.418    3.350
  491 1 1  18.768   83.579    3.350
  492 1 1  17.484   85.677    3.350
  493 1 1  18.658   87.838    3.350
  494 1 1  17.374   89.935    3.350
  495 1 1  18.549   92.096    3.350
  496 1 1  17.265   94.194    3.350
  497 1 1  18.440   96.355    3.350
  498 1 1  17.156   98.453    3.350
  499 1 1  18.331  100.613    3.350
  500 1 1  17.047  102.711    3.350
  501 1 1  18.221  104.872    3.350
  502 1 1  16.937  106.970    3.350
  503 1 1  18.112  109.131    3.350
  504 1 1  16.828  111.228    3.350
  505 1 1  22.128    0.568    3.350
  506 1 1  23.303    2.729    3.350
  507 1 1  22.019    4.827    3.350
  508 1 1  23.194    6.987    3.350
  509 1 1  21.910    9.085    3.350
  510 1 1  23.084   11.246    3.350
  511 1 1  21.800   13.344    3.350
  512 1 1  22.975   15.505    3.350
  513 1 1  21.691   17.602    3.350
  514 1 1  22.866   19.763    3.350
  515 1 1  21.582   21.861    3.350
  516 1 1  22.757   24.022    3.350
  517 1 1  21.473   26.119    3.350
  518 1 1  22.647   28.280    3.350
  519 1 1  21.363   30.378    3.350
  520 1 1  22.538   32.539    3.350
  521 1 1  21.254   34.637    3.350
  522 1 1  22.429   36.798    3.350
  523 1 1  21.145   38.895    3.350
  524 1 1  22.319   41.056    3.350
  525 1 1  21.035   43.154    3.350
  526 1 1  22.210   45.315    3.350
  527 1 1  20.926   47.412    3.350
  528 1 1  22.101   49.573    3.350
  529 1 1  20.817   51.671    3.350
  530 1 1  21.992   53.832    3.350
  531 1 1  20.708   55.930    3.350
  532 1 1  21.882   58.091    3.350
  533 1 1  20.598   60.188    3.350
  534 1 1  21.773   62.349    3.350
  535 1 1  20.489   64.447    3.350
  536 1 1  21.664   66.608    3.350
  537 1 1  20.380   68.705    3.350
  538 1 1  21.554   70.866    3.350
  539 1 1  20.270   72.964    3.350
  540 1 1  21.445   75.125    3.350
  541 1 1  20.161   77.223    3.350
  542 1 1  21.336   79.384    3.350
  543 1 1  20.052   81.481    3.350
  544 1 1  21.226   83.642    3.350
  545 1 1  19.942   85.740    3.350
  546 1 1  21.117   87.901    3.350
  547 1 1  19.833   89.998    3.350
  548 1 1  21.008   92.159    3.350
  549 1 1  19.724   94.257    3.350
  550 1 1  20.899   96.418    3.350
  551 1 1  19.615   98.516    3.350
  552 1 1  20.789  100.677    3.350
  553 1 1  19.505  102.774    3.350
  554 1 1  20.680  104.935    3.350
  555 1 1  19.396  107.033    3.350
  556 1 1  24.587    0.631    3.350
  557 1 1  25.762    2.792    3.350
  558 1 1  24.478    4.890    3.350
  559 1 1  25.652    7.050    3.350
  560 1 1  24.368    9.148    3.350
  561 1 1  25.543   11.309    3.350
  562 1 1  24.259   13.407    3.350
  563 1 1  25.434   15.568    3.350
  564 1 1  24.150   17.665    3.350
  565 1 1  25.325   19.826    3.350
  566 1 1  24.041   21.924    3.350
  567 1 1  25.215   24.085    3.350
  568 1 1  23.931   26.183    3.350
  569 1 1  25.106   28.343    3.350
  570 1 1  23.822   30.441    3.350
  571 1 1  24.997   32.602    3.350
  572 1 1  23.713   34.700    3.350
  573 1 1  24.887   36.861    3.350
  574 1 1  23.603   38.958    3.350
  575 1 1  24.778   41.119    3.350
  576 1 1  23.494   43.217    3.350
  577 1 1  24.669   45.378    3.350
  578 1 1  23.385   47.476    3.350
  579 1 1  24.559   49.636    3.350
  580 1 1  23.276   51.734    3.350
  581 1 1  24.450   53.895    3.350
  582 1 1  23.166   55.993    3.350
  583 1 1  24.341   58.154    3.350
  584 1 1  23.057   60.251    3.350
  585 1 1  24.232   62.412    3.350
  586 1 1  22.948   64.510    3.350
  587 1 1  24.122   66.671    3.350
  588 1 1  22.838   68.769    3.350
  589 1 1  24.013   70.929    3.350
  590 1 1  22.729   73.027    3.350
  591 1 1  23.904   75.188    3.350
  592 1 1  22.620   77.286    3.350
  593 1 1  23.794   79.447    3.350
  594 1 1  22.510   81.544    3.350
  595 1 1  23.685   83.705    3.350
  596 1 1  22.401   85.803    3.350
  597 1 1  23.576   87.964    3.350
  598 1 1  22.292   90.062    3.350
  599 1 1  23.467   92.222    3.350
  600 1 1  22.183   94.320    3.350
  601 1 1  23.357   96.481    3.350
  602 1 1  22.073   98.579    3.350
  603 1 1  23.248  100.740    3.350
  604 1 1  21.964  102.837    3.350
  605 1 1  27.046    0.694    3.350
  606 1 1  28.220    2.855    3.350
  607 1 1  26.936    4.953    3.350
  608 1 1  28.111    7.114    3.350
  609 1 1  26.827    9.211    3.350
  610 1 1  28.002   11.372    3.350
  611 1 1  26.718   13.470    3.350
  612 1 1  27.893   15.631    3.350
  613 1 1  26.609   17.728    3.350
  614 1 1  27.783   19.889    3.350
  615 1 1  26.499   21.987    3.350
  616 1 1  27.674   24.148    3.350
  617 1 1  26.390   26.246    3.350
  618 1 1  27.565   28.407    3.350
  619 1 1  26.281   30.504    3.350
  620 1 1  27.455   32.665    3.350
  621 1 1  26.171   34.763    3.350
  622 1 1  27.346   36.924    3.350
  623 1 1  26.062   39.021    3.350
  624 1 1  27.237   41.182    3.350
  625 1 1  25.953   43.280    3.350
  626 1 1  27.127   45.441    3.350
  627 1 1  25.843   47.539    3.350
  628 1 1  27.018   49.700    3.350
  629 1 1  25.734   51.797    3.350
  630 1 1  26.909   53.958    3.350
  631 1 1  25.625   56.056    3.350
  632 1 1  26.800   58.217    3.350
  633 1 1  25.516   60.314    3.350
  634 1 1  26.690   62.475    3.350
  635 1 1  25.406   64.573    3.350
  636 1 1  26.581   66.734    3.350
  637 1 1  25.297   68.832    3.350
  638 1 1  26.472   70.993    3.350
  639 1 1  25.188   73.090    3.350
  640 1 1  26.362   75.251    3.350
  641 1 1  25.078   77.349    3.350
  642 1 1  26.253   79.510    3.350
  643 1 1  24.969   81.607    3.350
  644 1 1  26.144   83.768    3.350
  645 1 1  24.860   85.866    3.350
  646 1 1  26.035   88.027    3.350
  647 1 1  24.751   90.125    3.350
  648 1 1  25.925   92.286    3.350
  649 1 1  24.641   94.383    3.350
  650 1 1  25.816   96.544    3.350
  651 1 1  24.532   98.642    3.350
  652 1 1  29.504    0.757    3.350
  653 1 1  30.679    2.918    3.350
  654 1 1  29.395    5.016    3.350
  655 1 1  30.570    7.177    3.350
  656 1 1  29.286    9.274    3.350
  657 1 1  30.461   11.435    3.350
  658 1 1  29.177   13.533    3.350
  659 1 1  30.351   15.694    3.350
  660 1 1  29.067   17.792    3.350
  661 1 1  30.242   19.952    3.350
  662 1 1  28.958   22.050    3.350
  663 1 1  30.133   24.211    3.350
  664 1 1  28.849   26.309    3.350
  665 1 1  30.023   28.470    3.350
  666 1 1  28.739   30.567    3.350
  667 1 1  29.914   32.728    3.350
  668 1 1  28.630   34.826    3.350
  669 1 1  29.805   36.987    3.350
  670 1 1  28.521   39.085    3.350
  671 1 1  29.695   41.245    3.350
  672 1 1  28.411   43.343    3.350
  673 1 1  29.586   45.504    3.350
  674 1 1  28.302   47.602    3.350
  675 1 1  29.477   49.763    3.350
  676 1 1  28.193   51.860    3.350
  677 1 1  29.368   54.021    3.350
  678 1 1  28.084   56.119    3.350
  679 1 1  29.258   58.280    3.350
  680 1 1  27.974   60.378    3.350
  681 1 1  29.149   62.538    3.350
  682 1 1  27.865   64.636    3.350
  683 1 1  29.040   66.797    3.350
  684 1 1  27.756   68.895    3.350
  685 1 1  28.930   71.056    3.350
  686 1 1  27.646   73.153    3.350
  687 1 1  28.821   75.314    3.350
  688 1 1  27.537   77.412    3.350
  689 1 1  28.712   79.573    3.350
  690 1 1  27.428   81.671    3.350
  691 1 1  28.603   83.831    3.350
  692 1 1  27.319   85.929    3.350
  693 1 1  28.493   88.090    3.350
  694 1 1  27.209   90.188    3.350
  695 1 1  28.384   92.349    3.350
  696 1 1  27.100   94.446    3.350
  697 1 1  31.963    0.820    3.350
  698 1 1  33.138    2.981    3.350
  699 1 1  31.854    5.079    3.350
  700 1 1  33.029    7.240    3.350
  701 1 1  31.745    9.338    3.350
  702 1 1  32.919   11.498    3.350
  703 1 1  31.635   13.596    3.350
  704 1 1  32.810   15.757    3.350
  705 1 1  31.526   17.855    3.350
  706 1 1  32.701   20.016    3.350
  707 1 1  31.417   22.113    3.350
  708 1 1  32.591   24.274    3.350
  709 1 1  31.307   26.372    3.350
  710 1 1  32.482   28.533    3.350
  711 1 1  31.198   30.630    3.350
  712 1 1  32.373   32.791    3.350
  713 1 1  31.089   34.889    3.350
  714 1 1  32.263   37.050    3.350
  715 1 1  30.979   39.148    3.350
  716 1 1  32.154   41.309    3.350
  717 1 1  30.870   43.406    3.350
  718 1 1  32.045   45.567    3.350
  719 1 1  30.761   47.665    3.350
  720 1 1  31.936   49.826    3.350
  721 1 1  30.652   51.923    3.350
  722 1 1  31.826   54.084    3.350
  723 1 1  30.542   56.182    3.350
  724 1 1  31.717   58.343    3.350
  725 1 1  30.433   60.441    3.350
  726 1 1  31.608   62.602    3.350
  727 1 1  30.324   64.699    3.350
  728 1 1  31.498   66.860    3.350
  729 1 1  30.214   68.958    3.350
  730 1 1  31.389   71.119    3.350
  731 1 1  30.105   73.216    3.350
  732 1 1  31.280   75.377    3.350
  733 1 1  29.996   77.475    3.350
  734 1 1  31.171   79.636    3.350
  735 1 1  29.887   81.734    3.350
  736 1 1  31.061   83.895    3.350
  737 1 1  29.777   85.992    3.350
  738 1 1  30.952   88.153    3.350
  739 1 1  29.668   90.251    3.350
  740 1 1  34.422    0.883    3.350
  741 1 1  35.597    3.044    3.350
  742 1 1  34.313    5.142    3.350
  743 1 1  35.487    7.303    3.350
  744 1 1  34.203    9.401    3.350
  745 1 1  35.378   11.561    3.350
  746 1 1  34.094   13.659    3.350
  747 1 1  35.269   15.820    3.350
  748 1 1  33.985   17.918    3.350
  749 1 1  35.159   20.079    3.350
  750 1 1  33.875   22.176    3.350
  751 1 1  35.050   24.337    3.350
  752 1 1  33.766   26.435    3.350
  753 1 1  34.941   28.596    3.350
  754 1 1  33.657   30.694    3.350
  755 1 1  34.831   32.854    3.350
  756 1 1  33.547   34.952    3.350
  757 1 1  34.722   37.113    3.350
  758 1 1  33.438   39.211    3.350
  759 1 1  34.613   41.372    3.350
  760 1 1  33.329   43.469    3.350
  761 1 1  34.504   45.630    3.350
  762 1 1  33.220   47.728    3.350
  763 1 1  34.394   49.889    3.350
  764 1 1  33.110   51.987    3.350
  765 1 1  34.285   54.147    3.350
  766 1 1  33.001   56.245    3.350
  767 1 1  34.176   58.406    3.350
  768 1 1  32.892   60.504    3.350
  769 1 1  34.066   62.665    3.350
  770 1 1  32.782   64.762    3.350
  771 1 1  33.957   66.923    3.350
  772 1 1  32.673   69.021    3.350
  773 1 1  33.848   71.182    3.350
  774 1 1  32.564   73.280    3.350
  775 1 1  33.739   75.440    3.350
  776 1 1  32.455   77.538    3.350
  777 1 1  33.629   79.699    3.350
  778 1 1  32.345   81.797    3.350
  779 1 1  33.520   83.958    3.350
  780 1 1  32.236   86.055    3.350
  781 1 1  36.881    0.947    3.350
  782 1 1  38.055    3.107    3.350
  783 1 1  36.771    5.205    3.350
  784 1 1  37.946    7.366    3.350
  785 1 1  36.662    9.464    3.350
  786 1 1  37.837   11.625    3.350
  787 1 1  36.553   13.722    3.350
  788 1 1  37.727   15.883    3.350
  789 1 1  36.443   17.981    3.350
  790 1 1  37.618   20.142    3.350
  791 1 1  36.334   22.239    3.350
  792 1 1  37.509   24.400    3.350
  793 1 1  36.225   26.498    3.350
  794 1 1  37.399   28.659    3.350
  795 1 1  36.115   30.757    3.350
  796 1 1  37.290   32.918    3.350
  797 1 1  36.006   35.015    3.350
  798 1 1  37.181   37.176    3.350
  799 1 1  35.897   39.274    3.350
  800 1 1  37.072   41.435    3.350
  801 1 1  35.788   43.532    3.350
  802 1 1  36.962   45.693    3.350
  803 1 1  35.678   47.791    3.350
  804 1 1  36.853   49.952    3.350
  805 1 1  35.569   52.050    3.350
  806 1 1  36.744   54.211    3.350
  807 1 1  35.460   56.308    3.350
  808 1 1  36.634   58.469    3.350
  809 1 1  35.350   60.567    3.350
  810 1 1  36.525   62.728    3.350
  811 1 1  35.241   64.825    3.350
  812 1 1  36.416   66.986    3.350
  813 1 1  35.132   69.084    3.350
  814 1 1  36.307   71.245    3.350
  815 1 1  35.023   73.343    3.350
  816 1 1  36.197   75.504    3.350
  817 1 1  34.913   77.601    3.350
  818 1 1  36.088   79.762    3.350
  819 1 1  34.804   81.860    3.350
  820 1 1  39.339    1.010    3.350
  821 1 1  40.514    3.170    3.350
  822 1 1  39.230    5.268    3.350
  823 1 1  40.405    7.429    3.350
  824 1 1  39.121    9.527    3.350
  825 1 1  40.295   11.688    3.350
  826 1 1  39.011   13.785    3.350
  827 1 1  40.186   15.946    3.350