#Lammps data file

43026 atoms
 4903 bonds
    4 atom types
    1 bond types

-52.5751 325.4648 xlo xhi
-173.4528  65.0448 ylo yhi
-30.0000  30.0000 zlo zhi

Masses

 1 10.81
 2 14
 3 12
 4 12

Atoms #bond

    1 1 1 -52.575  -173.453    0.000
    2 1 1 -51.323  -171.285    0.000
    3 1 1 -52.575  -169.116    0.000
    4 1 1 -51.323  -166.948    0.000
    5 1 1 -52.575  -164.780    0.000
    6 1 1 -51.323  -162.612    0.000
    7 1 1 -52.575  -160.444    0.000
    8 1 1 -51.323  -158.276    0.000
    9 1 1 -52.575  -156.107    0.000
   10 1 1 -51.323  -153.939    0.000
   11 1 1 -52.575  -151.771    0.000
   12 1 1 -51.323  -149.603    0.000
   13 1 1 -52.575  -147.435    0.000
   14 1 1 -51.323  -145.267    0.000
   15 1 1 -52.575  -143.099    0.000
   16 1 1 -51.323  -140.930    0.000
   17 1 1 -52.575  -138.762    0.000
   18 1 1 -51.323  -136.594    0.000
   19 1 1 -52.575  -134.426    0.000
   20 1 1 -51.323  -132.258    0.000
   21 1 1 -52.575  -130.090    0.000
   22 1 1 -51.323  -127.921    0.000
   23 1 1 -52.575  -125.753    0.000
   24 1 1 -51.323  -123.585    0.000
   25 1 1 -52.575  -121.417    0.000
   26 1 1 -51.323  -119.249    0.000
   27 1 1 -52.575  -117.081    0.000
   28 1 1 -51.323  -114.912    0.000
   29 1 1 -52.575  -112.744    0.000
   30 1 1 -51.323  -110.576    0.000
   31 1 1 -52.575  -108.408    0.000
   32 1 1 -51.323  -106.240    0.000
   33 1 1 -52.575  -104.072    0.000
   34 1 1 -51.323  -101.904    0.000
   35 1 1 -52.575  -99.735    0.000
   36 1 1 -51.323  -97.567    0.000
   37 1 1 -52.575  -95.399    0.000
   38 1 1 -51.323  -93.231    0.000
   39 1 1 -52.575  -91.063    0.000
   40 1 1 -51.323  -88.895    0.000
   41 1 1 -52.575  -86.726    0.000
   42 1 1 -51.323  -84.558    0.000
   43 1 1 -52.575  -82.390    0.000
   44 1 1 -51.323  -80.222    0.000
   45 1 1 -52.575  -78.054    0.000
   46 1 1 -51.323  -75.886    0.000
   47 1 1 -52.575  -73.717    0.000
   48 1 1 -51.323  -71.549    0.000
   49 1 1 -52.575  -69.381    0.000
   50 1 1 -51.323  -67.213    0.000
   51 1 1 -52.575  -65.045    0.000
   52 1 1 -51.323  -62.877    0.000
   53 1 1 -52.575  -60.708    0.000
   54 1 1 -51.323  -58.540    0.000
   55 1 1 -52.575  -56.372    0.000
   56 1 1 -51.323  -54.204    0.000
   57 1 1 -52.575  -52.036    0.000
   58 1 1 -51.323  -49.868    0.000
   59 1 1 -52.575  -47.700    0.000
   60 1 1 -51.323  -45.531    0.000
   61 1 1 -52.575  -43.363    0.000
   62 1 1 -51.323  -41.195    0.000
   63 1 1 -52.575  -39.027    0.000
   64 1 1 -51.323  -36.859    0.000
   65 1 1 -52.575  -34.691    0.000
   66 1 1 -51.323  -32.522    0.000
   67 1 1 -52.575  -30.354    0.000
   68 1 1 -51.323  -28.186    0.000
   69 1 1 -52.575  -26.018    0.000
   70 1 1 -51.323  -23.850    0.000
   71 1 1 -52.575  -21.682    0.000
   72 1 1 -51.323  -19.513    0.000
   73 1 1 -52.575  -17.345    0.000
   74 1 1 -51.323  -15.177    0.000
   75 1 1 -52.575  -13.009    0.000
   76 1 1 -51.323  -10.841    0.000
   77 1 1 -52.575   -8.673    0.000
   78 1 1 -51.323   -6.504    0.000
   79 1 1 -52.575   -4.336    0.000
   80 1 1 -51.323   -2.168    0.000
   81 1 1 -52.575    0.000    0.000
   82 1 1 -51.323    2.168    0.000
   83 1 1 -52.575    4.336    0.000
   84 1 1 -51.323    6.504    0.000
   85 1 1 -52.575    8.673    0.000
   86 1 1 -51.323   10.841    0.000
   87 1 1 -52.575   13.009    0.000
   88 1 1 -51.323   15.177    0.000
   89 1 1 -52.575   17.345    0.000
   90 1 1 -51.323   19.513    0.000
   91 1 1 -52.575   21.682    0.000
   92 1 1 -51.323   23.850    0.000
   93 1 1 -52.575   26.018    0.000
   94 1 1 -51.323   28.186    0.000
   95 1 1 -52.575   30.354    0.000
   96 1 1 -51.323   32.522    0.000
   97 1 1 -52.575   34.691    0.000
   98 1 1 -51.323   36.859    0.000
   99 1 1 -52.575   39.027    0.000
  100 1 1 -51.323   41.195    0.000
  101 1 1 -52.575   43.363    0.000
  102 1 1 -51.323   45.531    0.000
  103 1 1 -52.575   47.700    0.000
  104 1 1 -51.323   49.868    0.000
  105 1 1 -52.575   52.036    0.000
  106 1 1 -51.323   54.204    0.000
  107 1 1 -52.575   56.372    0.000
  108 1 1 -51.323   58.540    0.000
  109 1 1 -52.575   60.708    0.000
  110 1 1 -51.323   62.877    0.000
  111 1 1 -50.072  -173.453    0.000
  112 1 1 -48.820  -171.285    0.000
  113 1 1 -50.072  -169.116    0.000
  114 1 1 -48.820  -166.948    0.000
  115 1 1 -50.072  -164.780    0.000
  116 1 1 -48.820  -162.612    0.000
  117 1 1 -50.072  -160.444    0.000
  118 1 1 -48.820  -158.276    0.000
  119 1 1 -50.072  -156.107    0.000
  120 1 1 -48.820  -153.939    0.000
  121 1 1 -50.072  -151.771    0.000
  122 1 1 -48.820  -149.603    0.000
  123 1 1 -50.072  -147.435    0.000
  124 1 1 -48.820  -145.267    0.000
  125 1 1 -50.072  -143.099    0.000
  126 1 1 -48.820  -140.930    0.000
  127 1 1 -50.072  -138.762    0.000
  128 1 1 -48.820  -136.594    0.000
  129 1 1 -50.072  -134.426    0.000
  130 1 1 -48.820  -132.258    0.000
  131 1 1 -50.072  -130.090    0.000
  132 1 1 -48.820  -127.921    0.000
  133 1 1 -50.072  -125.753    0.000
  134 1 1 -48.820  -123.585    0.000
  135 1 1 -50.072  -121.417    0.000
  136 1 1 -48.820  -119.249    0.000
  137 1 1 -50.072  -117.081    0.000
  138 1 1 -48.820  -114.912    0.000
  139 1 1 -50.072  -112.744    0.000
  140 1 1 -48.820  -110.576    0.000
  141 1 1 -50.072  -108.408    0.000
  142 1 1 -48.820  -106.240    0.000
  143 1 1 -50.072  -104.072    0.000
  144 1 1 -48.820  -101.904    0.000
  145 1 1 -50.072  -99.735    0.000
  146 1 1 -48.820  -97.567    0.000
  147 1 1 -50.072  -95.399    0.000
  148 1 1 -48.820  -93.231    0.000
  149 1 1 -50.072  -91.063    0.000
  150 1 1 -48.820  -88.895    0.000
  151 1 1 -50.072  -86.726    0.000
  152 1 1 -48.820  -84.558    0.000
  153 1 1 -50.072  -82.390    0.000
  154 1 1 -48.820  -80.222    0.000
  155 1 1 -50.072  -78.054    0.000
  156 1 1 -48.820  -75.886    0.000
  157 1 1 -50.072  -73.717    0.000
  158 1 1 -48.820  -71.549    0.000
  159 1 1 -50.072  -69.381    0.000
  160 1 1 -48.820  -67.213    0.000
  161 1 1 -50.072  -65.045    0.000
  162 1 1 -48.820  -62.877    0.000
  163 1 1 -50.072  -60.708    0.000
  164 1 1 -48.820  -58.540    0.000
  165 1 1 -50.072  -56.372    0.000
  166 1 1 -48.820  -54.204    0.000
  167 1 1 -50.072  -52.036    0.000
  168 1 1 -48.820  -49.868    0.000
  169 1 1 -50.072  -47.700    0.000
  170 1 1 -48.820  -45.531    0.000
  171 1 1 -50.072  -43.363    0.000
  172 1 1 -48.820  -41.195    0.000
  173 1 1 -50.072  -39.027    0.000
  174 1 1 -48.820  -36.859    0.000
  175 1 1 -50.072  -34.691    0.000
  176 1 1 -48.820  -32.522    0.000
  177 1 1 -50.072  -30.354    0.000
  178 1 1 -48.820  -28.186    0.000
  179 1 1 -50.072  -26.018    0.000
  180 1 1 -48.820  -23.850    0.000
  181 1 1 -50.072  -21.682    0.000
  182 1 1 -48.820  -19.513    0.000
  183 1 1 -50.072  -17.345    0.000
  184 1 1 -48.820  -15.177    0.000
  185 1 1 -50.072  -13.009    0.000
  186 1 1 -48.820  -10.841    0.000
  187 1 1 -50.072   -8.673    0.000
  188 1 1 -48.820   -6.504    0.000
  189 1 1 -50.072   -4.336    0.000
  190 1 1 -48.820   -2.168    0.000
  191 1 1 -50.072    0.000    0.000
  192 1 1 -48.820    2.168    0.000
  193 1 1 -50.072    4.336    0.000
  194 1 1 -48.820    6.504    0.000
  195 1 1 -50.072    8.673    0.000
  196 1 1 -48.820   10.841    0.000
  197 1 1 -50.072   13.009    0.000
  198 1 1 -48.820   15.177    0.000
  199 1 1 -50.072   17.345    0.000
  200 1 1 -48.820   19.513    0.000
  201 1 1 -50.072   21.682    0.000
  202 1 1 -48.820   23.850    0.000
  203 1 1 -50.072   26.018    0.000
  204 1 1 -48.820   28.186    0.000
  205 1 1 -50.072   30.354    0.000
  206 1 1 -48.820   32.522    0.000
  207 1 1 -50.072   34.691    0.000
  208 1 1 -48.820   36.859    0.000
  209 1 1 -50.072   39.027    0.000
  210 1 1 -48.820   41.195    0.000
  211 1 1 -50.072   43.363    0.000
  212 1 1 -48.820   45.531    0.000
  213 1 1 -50.072   47.700    0.000
  214 1 1 -48.820   49.868    0.000
  215 1 1 -50.072   52.036    0.000
  216 1 1 -48.820   54.204    0.000
  217 1 1 -50.072   56.372    0.000
  218 1 1 -48.820   58.540    0.000
  219 1 1 -50.072   60.708    0.000
  220 1 1 -48.820   62.877    0.000
  221 1 1 -47.568  -173.453    0.000
  222 1 1 -46.316  -171.285    0.000
  223 1 1 -47.568  -169.116    0.000
  224 1 1 -46.316  -166.948    0.000
  225 1 1 -47.568  -164.780    0.000
  226 1 1 -46.316  -162.612    0.000
  227 1 1 -47.568  -160.444    0.000
  228 1 1 -46.316  -158.276    0.000
  229 1 1 -47.568  -156.107    0.000
  230 1 1 -46.316  -153.939    0.000
  231 1 1 -47.568  -151.771    0.000
  232 1 1 -46.316  -149.603    0.000
  233 1 1 -47.568  -147.435    0.000
  234 1 1 -46.316  -145.267    0.000
  235 1 1 -47.568  -143.099    0.000
  236 1 1 -46.316  -140.930    0.000
  237 1 1 -47.568  -138.762    0.000
  238 1 1 -46.316  -136.594    0.000
  239 1 1 -47.568  -134.426    0.000
  240 1 1 -46.316  -132.258    0.000
  241 1 1 -47.568  -130.090    0.000
  242 1 1 -46.316  -127.921    0.000
  243 1 1 -47.568  -125.753    0.000
  244 1 1 -46.316  -123.585    0.000
  245 1 1 -47.568  -121.417    0.000
  246 1 1 -46.316  -119.249    0.000
  247 1 1 -47.568  -117.081    0.000
  248 1 1 -46.316  -114.912    0.000
  249 1 1 -47.568  -112.744    0.000
  250 1 1 -46.316  -110.576    0.000
  251 1 1 -47.568  -108.408    0.000
  252 1 1 -46.316  -106.240    0.000
  253 1 1 -47.568  -104.072    0.000
  254 1 1 -46.316  -101.904    0.000
  255 1 1 -47.568  -99.735    0.000
  256 1 1 -46.316  -97.567    0.000
  257 1 1 -47.568  -95.399    0.000
  258 1 1 -46.316  -93.231    0.000
  259 1 1 -47.568  -91.063    0.000
  260 1 1 -46.316  -88.895    0.000
  261 1 1 -47.568  -86.726    0.000
  262 1 1 -46.316  -84.558    0.000
  263 1 1 -47.568  -82.390    0.000
  264 1 1 -46.316  -80.222    0.000
  265 1 1 -47.568  -78.054    0.000
  266 1 1 -46.316  -75.886    0.000
  267 1 1 -47.568  -73.717    0.000
  268 1 1 -46.316  -71.549    0.000
  269 1 1 -47.568  -69.381    0.000
  270 1 1 -46.316  -67.213    0.000
  271 1 1 -47.568  -65.045    0.000
  272 1 1 -46.316  -62.877    0.000
  273 1 1 -47.568  -60.708    0.000
  274 1 1 -46.316  -58.540    0.000
  275 1 1 -47.568  -56.372    0.000
  276 1 1 -46.316  -54.204    0.000
  277 1 1 -47.568  -52.036    0.000
  278 1 1 -46.316  -49.868    0.000
  279 1 1 -47.568  -47.700    0.000
  280 1 1 -46.316  -45.531    0.000
  281 1 1 -47.568  -43.363    0.000
  282 1 1 -46.316  -41.195    0.000
  283 1 1 -47.568  -39.027    0.000
  284 1 1 -46.316  -36.859    0.000
  285 1 1 -47.568  -34.691    0.000
  286 1 1 -46.316  -32.522    0.000
  287 1 1 -47.568  -30.354    0.000
  288 1 1 -46.316  -28.186    0.000
  289 1 1 -47.568  -26.018    0.000
  290 1 1 -46.316  -23.850    0.000
  291 1 1 -47.568  -21.682    0.000
  292 1 1 -46.316  -19.513    0.000
  293 1 1 -47.568  -17.345    0.000
  294 1 1 -46.316  -15.177    0.000
  295 1 1 -47.568  -13.009    0.000
  296 1 1 -46.316  -10.841    0.000
  297 1 1 -47.568   -8.673    0.000
  298 1 1 -46.316   -6.504    0.000
  299 1 1 -47.568   -4.336    0.000
  300 1 1 -46.316   -2.168    0.000
  301 1 1 -47.568    0.000    0.000
  302 1 1 -46.316    2.168    0.000
  303 1 1 -47.568    4.336    0.000
  304 1 1 -46.316    6.504    0.000
  305 1 1 -47.568    8.673    0.000
  306 1 1 -46.316   10.841    0.000
  307 1 1 -47.568   13.009    0.000
  308 1 1 -46.316   15.177    0.000
  309 1 1 -47.568   17.345    0.000
  310 1 1 -46.316   19.513    0.000
  311 1 1 -47.568   21.682    0.000
  312 1 1 -46.316   23.850    0.000
  313 1 1 -47.568   26.018    0.000
  314 1 1 -46.316   28.186    0.000
  315 1 1 -47.568   30.354    0.000
  316 1 1 -46.316   32.522    0.000
  317 1 1 -47.568   34.691    0.000
  318 1 1 -46.316   36.859    0.000
  319 1 1 -47.568   39.027    0.000
  320 1 1 -46.316   41.195    0.000
  321 1 1 -47.568   43.363    0.000
  322 1 1 -46.316   45.531    0.000
  323 1 1 -47.568   47.700    0.000
  324 1 1 -46.316   49.868    0.000
  325 1 1 -47.568   52.036    0.000
  326 1 1 -46.316   54.204    0.000
  327 1 1 -47.568   56.372    0.000
  328 1 1 -46.316   58.540    0.000
  329 1 1 -47.568   60.708    0.000
  330 1 1 -46.316   62.877    0.000
  331 1 1 -45.064  -173.453    0.000
  332 1 1 -43.813  -171.285    0.000
  333 1 1 -45.064  -169.116    0.000
  334 1 1 -43.813  -166.948    0.000
  335 1 1 -45.064  -164.780    0.000
  336 1 1 -43.813  -162.612    0.000
  337 1 1 -45.064  -160.444    0.000
  338 1 1 -43.813  -158.276    0.000
  339 1 1 -45.064  -156.107    0.000
  340 1 1 -43.813  -153.939    0.000
  341 1 1 -45.064  -151.771    0.000
  342 1 1 -43.813  -149.603    0.000
  343 1 1 -45.064  -147.435    0.000
  344 1 1 -43.813  -145.267    0.000
  345 1 1 -45.064  -143.099    0.000
  346 1 1 -43.813  -140.930    0.000
  347 1 1 -45.064  -138.762    0.000
  348 1 1 -43.813  -136.594    0.000
  349 1 1 -45.064  -134.426    0.000
  350 1 1 -43.813  -132.258    0.000
  351 1 1 -45.064  -130.090    0.000
  352 1 1 -43.813  -127.921    0.000
  353 1 1 -45.064  -125.753    0.000
  354 1 1 -43.813  -123.585    0.000
  355 1 1 -45.064  -121.417    0.000
  356 1 1 -43.813  -119.249    0.000
  357 1 1 -45.064  -117.081    0.000
  358 1 1 -43.813  -114.912    0.000
  359 1 1 -45.064  -112.744    0.000
  360 1 1 -43.813  -110.576    0.000
  361 1 1 -45.064  -108.408    0.000
  362 1 1 -43.813  -106.240    0.000
  363 1 1 -45.064  -104.072    0.000
  364 1 1 -43.813  -101.904    0.000
  365 1 1 -45.064  -99.735    0.000
  366 1 1 -43.813  -97.567    0.000
  367 1 1 -45.064  -95.399    0.000
  368 1 1 -43.813  -93.231    0.000
  369 1 1 -45.064  -91.063    0.000
  370 1 1 -43.813  -88.895    0.000
  371 1 1 -45.064  -86.726    0.000
  372 1 1 -43.813  -84.558    0.000
  373 1 1 -45.064  -82.390    0.000
  374 1 1 -43.813  -80.222    0.000
  375 1 1 -45.064  -78.054    0.000
  376 1 1 -43.813  -75.886    0.000
  377 1 1 -45.064  -73.717    0.000
  378 1 1 -43.813  -71.549    0.000
  379 1 1 -45.064  -69.381    0.000
  380 1 1 -43.813  -67.213    0.000
  381 1 1 -45.064  -65.045    0.000
  382 1 1 -43.813  -62.877    0.000
  383 1 1 -45.064  -60.708    0.000
  384 1 1 -43.813  -58.540    0.000
  385 1 1 -45.064  -56.372    0.000
  386 1 1 -43.813  -54.204    0.000
  387 1 1 -45.064  -52.036    0.000
  388 1 1 -43.813  -49.868    0.000
  389 1 1 -45.064  -47.700    0.000
  390 1 1 -43.813  -45.531    0.000
  391 1 1 -45.064  -43.363    0.000
  392 1 1 -43.813  -41.195    0.000
  393 1 1 -45.064  -39.027    0.000
  394 1 1 -43.813  -36.859    0.000
  395 1 1 -45.064  -34.691    0.000
  396 1 1 -43.813  -32.522    0.000
  397 1 1 -45.064  -30.354    0.000
  398 1 1 -43.813  -28.186    0.000
  399 1 1 -45.064  -26.018    0.000
  400 1 1 -43.813  -23.850    0.000
  401 1 1 -45.064  -21.682    0.000
  402 1 1 -43.813  -19.513    0.000
  403 1 1 -45.064  -17.345    0.000
  404 1 1 -43.813  -15.177    0.000
  405 1 1 -45.064  -13.009    0.000
  406 1 1 -43.813  -10.841    0.000
  407 1 1 -45.064   -8.673    0.000
  408 1 1 -43.813   -6.504    0.000
  409 1 1 -45.064   -4.336    0.000
  410 1 1 -43.813   -2.168    0.000
  411 1 1 -45.064    0.000    0.000
  412 1 1 -43.813    2.168    0.000
  413 1 1 -45.064    4.336    0.000
  414 1 1 -43.813    6.504    0.000
  415 1 1 -45.064    8.673    0.000
  416 1 1 -43.813   10.841    0.000
  417 1 1 -45.064   13.009    0.000
  418 1 1 -43.813   15.177    0.000
  419 1 1 -45.064   17.345    0.000
  420 1 1 -43.813   19.513    0.000
  421 1 1 -45.064   21.682    0.000
  422 1 1 -43.813   23.850    0.000
  423 1 1 -45.064   26.018    0.000
  424 1 1 -43.813   28.186    0.000
  425 1 1 -45.064   30.354    0.000
  426 1 1 -43.813   32.522    0.000
  427 1 1 -45.064   34.691    0.000
  428 1 1 -43.813   36.859    0.000
  429 1 1 -45.064   39.027    0.000
  430 1 1 -43.813   41.195    0.000
  431 1 1 -45.064   43.363    0.000
  432 1 1 -43.813   45.531    0.000
  433 1 1 -45.064   47.700    0.000
  434 1 1 -43.813   49.868    0.000
  435 1 1 -45.064   52.036    0.000
  436 1 1 -43.813   54.204    0.000
  437 1 1 -45.064   56.372    0.000
  438 1 1 -43.813   58.540    0.000
  439 1 1 -45.064   60.708    0.000
  440 1 1 -43.813   62.877    0.000
  441 1 1 -42.561  -173.453    0.000
  442 1 1 -41.309  -171.285    0.000
  443 1 1 -42.561  -169.116    0.000
  444 1 1 -41.309  -166.948    0.000
  445 1 1 -42.561  -164.780    0.000
  446 1 1 -41.309  -162.612    0.000
  447 1 1 -42.561  -160.444    0.000
  448 1 1 -41.309  -158.276    0.000
  449 1 1 -42.561  -156.107    0.000
  450 1 1 -41.309  -153.939    0.000
  451 1 1 -42.561  -151.771    0.000
  452 1 1 -41.309  -149.603    0.000
  453 1 1 -42.561  -147.435    0.000
  454 1 1 -41.309  -145.267    0.000
  455 1 1 -42.561  -143.099    0.000
  456 1 1 -41.309  -140.930    0.000
  457 1 1 -42.561  -138.762    0.000
  458 1 1 -41.309  -136.594    0.000
  459 1 1 -42.561  -134.426    0.000
  460 1 1 -41.309  -132.258    0.000
  461 1 1 -42.561  -130.090    0.000
  462 1 1 -41.309  -127.921    0.000
  463 1 1 -42.561  -125.753    0.000
  464 1 1 -41.309  -123.585    0.000
  465 1 1 -42.561  -121.417    0.000
  466 1 1 -41.309  -119.249    0.000
  467 1 1 -42.561  -117.081    0.000
  468 1 1 -41.309  -114.912    0.000
  469 1 1 -42.561  -112.744    0.000
  470 1 1 -41.309  -110.576    0.000
  471 1 1 -42.561  -108.408    0.000
  472 1 1 -41.309  -106.240    0.000
  473 1 1 -42.561  -104.072    0.000
  474 1 1 -41.309  -101.904    0.000
  475 1 1 -42.561  -99.735    0.000
  476 1 1 -41.309  -97.567    0.000
  477 1 1 -42.561  -95.399    0.000
  478 1 1 -41.309  -93.231    0.000
  479 1 1 -42.561  -91.063    0.000
  480 1 1 -41.309  -88.895    0.000
  481 1 1 -42.561  -86.726    0.000
  482 1 1 -41.309  -84.558    0.000
  483 1 1 -42.561  -82.390    0.000
  484 1 1 -41.309  -80.222    0.000
  485 1 1 -42.561  -78.054    0.000
  486 1 1 -41.309  -75.886    0.000
  487 1 1 -42.561  -73.717    0.000
  488 1 1 -41.309  -71.549    0.000
  489 1 1 -42.561  -69.381    0.000
  490 1 1 -41.309  -67.213    0.000
  491 1 1 -42.561  -65.045    0.000
  492 1 1 -41.309  -62.877    0.000
  493 1 1 -42.561  -60.708    0.000
  494 1 1 -41.309  -58.540    0.000
  495 1 1 -42.561  -56.372    0.000
  496 1 1 -41.309  -54.204    0.000
  497 1 1 -42.561  -52.036    0.000
  498 1 1 -41.309  -49.868    0.000
  499 1 1 -42.561  -47.700    0.000
  500 1 1 -41.309  -45.531    0.000
  501 1 1 -42.561  -43.363    0.000
  502 1 1 -41.309  -41.195    0.000
  503 1 1 -42.561  -39.027    0.000
  504 1 1 -41.309  -36.859    0.000
  505 1 1 -42.561  -34.691    0.000
  506 1 1 -41.309  -32.522    0.000
  507 1 1 -42.561  -30.354    0.000
  508 1 1 -41.309  -28.186    0.000
  509 1 1 -42.561  -26.018    0.000
  510 1 1 -41.309  -23.850    0.000
  511 1 1 -42.561  -21.682    0.000
  512 1 1 -41.309  -19.513    0.000
  513 1 1 -42.561  -17.345    0.000
  514 1 1 -41.309  -15.177    0.000
  515 1 1 -42.561  -13.009    0.000
  516 1 1 -41.309  -10.841    0.000
  517 1 1 -42.561   -8.673    0.000
  518 1 1 -41.309   -6.504    0.000
  519 1 1 -42.561   -4.336    0.000
  520 1 1 -41.309   -2.168    0.000
  521 1 1 -42.561    0.000    0.000
  522 1 1 -41.309    2.168    0.000
  523 1 1 -42.561    4.336    0.000
  524 1 1 -41.309    6.504    0.000
  525 1 1 -42.561    8.673    0.000
  526 1 1 -41.309   10.841    0.000
  527 1 1 -42.561   13.009    0.000
  528 1 1 -41.309   15.177    0.000
  529 1 1 -42.561   17.345    0.000
  530 1 1 -41.309   19.513    0.000
  531 1 1 -42.561   21.682    0.000
  532 1 1 -41.309   23.850    0.000
  533 1 1 -42.561   26.018    0.000
  534 1 1 -41.309   28.186    0.000
  535 1 1 -42.561   30.354    0.000
  536 1 1 -41.309   32.522    0.000
  537 1 1 -42.561   34.691    0.000
  538 1 1 -41.309   36.859    0.000
  539 1 1 -42.561   39.027    0.000
  540 1 1 -41.309   41.195    0.000
  541 1 1 -42.561   43.363    0.000
  542 1 1 -41.309   45.531    0.000
  543 1 1 -42.561   47.700    0.000
  544 1 1 -41.309   49.868    0.000
  545 1 1 -42.561   52.036    0.000
  546 1 1 -41.309   54.204    0.000
  547 1 1 -42.561   56.372    0.000
  548 1 1 -41.309   58.540    0.000
  549 1 1 -42.561   60.708    0.000
  550 1 1 -41.309   62.877    0.000
  551 1 1 -40.057  -173.453    0.000
  552 1 1 -38.805  -171.285    0.000
  553 1 1 -40.057  -169.116    0.000
  554 1 1 -38.805  -166.948    0.000
  555 1 1 -40.057  -164.780    0.000
  556 1 1 -38.805  -162.612    0.000
  557 1 1 -40.057  -160.444    0.000
  558 1 1 -38.805  -158.276    0.000
  559 1 1 -40.057  -156.107    0.000
  560 1 1 -38.805  -153.939    0.000
  561 1 1 -40.057  -151.771    0.000
  562 1 1 -38.805  -149.603    0.000
  563 1 1 -40.057  -147.435    0.000
  564 1 1 -38.805  -145.267    0.000
  565 1 1 -40.057  -143.099    0.000
  566 1 1 -38.805  -140.930    0.000
  567 1 1 -40.057  -138.762    0.000
  568 1 1 -38.805  -136.594    0.000
  569 1 1 -40.057  -134.426    0.000
  570 1 1 -38.805  -132.258    0.000
  571 1 1 -40.057  -130.090    0.000
  572 1 1 -38.805  -127.921    0.000
  573 1 1 -40.057  -125.753    0.000
  574 1 1 -38.805  -123.585    0.000
  575 1 1 -40.057  -121.417    0.000
  576 1 1 -38.805  -119.249    0.000
  577 1 1 -40.057  -117.081    0.000
  578 1 1 -38.805  -114.912    0.000
  579 1 1 -40.057  -112.744    0.000
  580 1 1 -38.805  -110.576    0.000
  581 1 1 -40.057  -108.408    0.000
  582 1 1 -38.805  -106.240    0.000
  583 1 1 -40.057  -104.072    0.000
  584 1 1 -38.805  -101.904    0.000
  585 1 1 -40.057  -99.735    0.000
  586 1 1 -38.805  -97.567    0.000
  587 1 1 -40.057  -95.399    0.000
  588 1 1 -38.805  -93.231    0.000
  589 1 1 -40.057  -91.063    0.000
  590 1 1 -38.805  -88.895    0.000
  591 1 1 -40.057  -86.726    0.000
  592 1 1 -38.805  -84.558    0.000
  593 1 1 -40.057  -82.390    0.000
  594 1 1 -38.805  -80.222    0.000
  595 1 1 -40.057  -78.054    0.000
  596 1 1 -38.805  -75.886    0.000
  597 1 1 -40.057  -73.717    0.000
  598 1 1 -38.805  -71.549    0.000
  599 1 1 -40.057  -69.381    0.000
  600 1 1 -38.805  -67.213    0.000
  601 1 1 -40.057  -65.045    0.000
  602 1 1 -38.805  -62.877    0.000
  603 1 1 -40.057  -60.708    0.000
  604 1 1 -38.805  -58.540    0.000
  605 1 1 -40.057  -56.372    0.000
  606 1 1 -38.805  -54.204    0.000
  607 1 1 -40.057  -52.036    0.000
  608 1 1 -38.805  -49.868    0.000
  609 1 1 -40.057  -47.700    0.000
  610 1 1 -38.805  -45.531    0.000
  611 1 1 -40.057  -43.363    0.000
  612 1 1 -38.805  -41.195    0.000
  613 1 1 -40.057  -39.027    0.000
  614 1 1 -38.805  -36.859    0.000
  615 1 1 -40.057  -34.691    0.000
  616 1 1 -38.805  -32.522    0.000
  617 1 1 -40.057  -30.354    0.000
  618 1 1 -38.805  -28.186    0.000
  619 1 1 -40.057  -26.018    0.000
  620 1 1 -38.805  -23.850    0.000
  621 1 1 -40.057  -21.682    0.000
  622 1 1 -38.805  -19.513    0.000
  623 1 1 -40.057  -17.345    0.000
  624 1 1 -38.805  -15.177    0.000
  625 1 1 -40.057  -13.009    0.000
  626 1 1 -38.805  -10.841    0.000
  627 1 1 -40.057   -8.673    0.000
  628 1 1 -38.805   -6.504    0.000
  629 1 1 -40.057   -4.336    0.000
  630 1 1 -38.805   -2.168    0.000
  631 1 1 -40.057    0.000    0.000
  632 1 1 -38.805    2.168    0.000
  633 1 1 -40.057    4.336    0.000
  634 1 1 -38.805    6.504    0.000
  635 1 1 -40.057    8.673    0.000
  636 1 1 -38.805   10.841    0.000
  637 1 1 -40.057   13.009    0.000
  638 1 1 -38.805   15.177    0.000
  639 1 1 -40.057   17.345    0.000
  640 1 1 -38.805   19.513    0.000
  641 1 1 -40.057   21.682    0.000
  642 1 1 -38.805   23.850    0.000
  643 1 1 -40.057   26.018    0.000
  644 1 1 -38.805   28.186    0.000
  645 1 1 -40.057   30.354    0.000
  646 1 1 -38.805   32.522    0.000
  647 1 1 -40.057   34.691    0.000
  648 1 1 -38.805   36.859    0.000
  649 1 1 -40.057   39.027    0.000
  650 1 1 -38.805   41.195    0.000
  651 1 1 -40.057   43.363    0.000
  652 1 1 -38.805   45.531    0.000
  653 1 1 -40.057   47.700    0.000
  654 1 1 -38.805   49.868    0.000
  655 1 1 -40.057   52.036    0.000
  656 1 1 -38.805   54.204    0.000
  657 1 1 -40.057   56.372    0.000
  658 1 1 -38.805   58.540    0.000
  659 1 1 -40.057   60.708    0.000
  660 1 1 -38.805   62.877    0.000
  661 1 1 -37.554  -173.453    0.000
  662 1 1 -36.302  -171.285    0.000
  663 1 1 -37.554  -169.116    0.000
  664 1 1 -36.302  -166.948    0.000
  665 1 1 -37.554  -164.780    0.000
  666 1 1 -36.302  -162.612    0.000
  667 1 1 -37.554  -160.444    0.000
  668 1 1 -36.302  -158.276    0.000
  669 1 1 -37.554  -156.107    0.000
  670 1 1 -36.302  -153.939    0.000
  671 1 1 -37.554  -151.771    0.000
  672 1 1 -36.302  -149.603    0.000
  673 1 1 -37.554  -147.435    0.000
  674 1 1 -36.302  -145.267    0.000
  675 1 1 -37.554  -143.099    0.000
  676 1 1 -36.302  -140.930    0.000
  677 1 1 -37.554  -138.762    0.000
  678 1 1 -36.302  -136.594    0.000
  679 1 1 -37.554  -134.426    0.000
  680 1 1 -36.302  -132.258    0.000
  681 1 1 -37.554  -130.090    0.000
  682 1 1 -36.302  -127.921    0.000
  683 1 1 -37.554  -125.753    0.000
  684 1 1 -36.302  -123.585    0.000
  685 1 1 -37.554  -121.417    0.000
  686 1 1 -36.302  -119.249    0.000
  687 1 1 -37.554  -117.081    0.000
  688 1 1 -36.302  -114.912    0.000
  689 1 1 -37.554  -112.744    0.000
  690 1 1 -36.302  -110.576    0.000
  691 1 1 -37.554  -108.408    0.000
  692 1 1 -36.302  -106.240    0.000
  693 1 1 -37.554  -104.072    0.000
  694 1 1 -36.302  -101.904    0.000
  695 1 1 -37.554  -99.735    0.000
  696 1 1 -36.302  -97.567    0.000
  697 1 1 -37.554  -95.399    0.000
  698 1 1 -36.302  -93.231    0.000
  699 1 1 -37.554  -91.063    0.000
  700 1 1 -36.302  -88.895    0.000
  701 1 1 -37.554  -86.726    0.000
  702 1 1 -36.302  -84.558    0.000
  703 1 1 -37.554  -82.390    0.000
  704 1 1 -36.302  -80.222    0.000
  705 1 1 -37.554  -78.054    0.000
  706 1 1 -36.302  -75.886    0.000
  707 1 1 -37.554  -73.717    0.000
  708 1 1 -36.302  -71.549    0.000
  709 1 1 -37.554  -69.381    0.000
  710 1 1 -36.302  -67.213    0.000
  711 1 1 -37.554  -65.045    0.000
  712 1 1 -36.302  -62.877    0.000
  713 1 1 -37.554  -60.708    0.000
  714 1 1 -36.302  -58.540    0.000
  715 1 1 -37.554  -56.372    0.000
  716 1 1 -36.302  -54.204    0.000
  717 1 1 -37.554  -52.036    0.000
  718 1 1 -36.302  -49.868    0.000
  719 1 1 -37.554  -47.700    0.000
  720 1 1 -36.302  -45.531    0.000
  721 1 1 -37.554  -43.363    0.000
  722 1 1 -36.302  -41.195    0.000
  723 1 1 -37.554  -39.027    0.000
  724 1 1 -36.302  -36.859    0.000
  725 1 1 -37.554  -34.691    0.000
  726 1 1 -36.302  -32.522    0.000
  727 1 1 -37.554  -30.354    0.000
  728 1 1 -36.302  -28.186    0.000
  729 1 1 -37.554  -26.018    0.000
  730 1 1 -36.302  -23.850    0.000
  731 1 1 -37.554  -21.682    0.000
  732 1 1 -36.302  -19.513    0.000
  733 1 1 -37.554  -17.345    0.000
  734 1 1 -36.302  -15.177    0.000
  735 1 1 -37.554  -13.009    0.000
  736 1 1 -36.302  -10.841    0.000
  737 1 1 -37.554   -8.673    0.000
  738 1 1 -36.302   -6.504    0.000
  739 1 1 -37.554   -4.336    0.000
  740 1 1 -36.302   -2.168    0.000
  741 1 1 -37.554    0.000    0.000
  742 1 1 -36.302    2.168    0.000
  743 1 1 -37.554    4.336    0.000
  744 1 1 -36.302    6.504    0.000
  745 1 1 -37.554    8.673    0.000
  746 1 1 -36.302   10.841    0.000
  747 1 1 -37.554   13.009    0.000
  748 1 1 -36.302   15.177    0.000
  749 1 1 -37.554   17.345    0.000
  750 1 1 -36.302   19.513    0.000
  751 1 1 -37.554   21.682    0.000
  752 1 1 -36.302   23.850    0.000
  753 1 1 -37.554   26.018    0.000
  754 1 1 -36.302   28.186    0.000
  755 1 1 -37.554   30.354    0.000
  756 1 1 -36.302   32.522    0.000
  757 1 1 -37.554   34.691    0.000
  758 1 1 -36.302   36.859    0.000
  759 1 1 -37.554   39.027    0.000
  760 1 1 -36.302   41.195    0.000
  761 1 1 -37.554   43.363    0.000
  762 1 1 -36.302   45.531    0.000
  763 1 1 -37.554   47.700    0.000
  764 1 1 -36.302   49.868    0.000
  765 1 1 -37.554   52.036    0.000
  766 1 1 -36.302   54.204    0.000
  767 1 1 -37.554   56.372    0.000
  768 1 1 -36.302   58.540    0.000
  769 1 1 -37.554   60.708    0.000
  770 1 1 -36.302   62.877    0.000
  771 1 1 -35.050  -173.453    0.000
  772 1 1 -33.798  -171.285    0.000
  773 1 1 -35.050  -169.116    0.000
  774 1 1 -33.798  -166.948    0.000
  775 1 1 -35.050  -164.780    0.000
  776 1 1 -33.798  -162.612    0.000
  777 1 1 -35.050  -160.444    0.000
  778 1 1 -33.798  -158.276    0.000
  779 1 1 -35.050  -156.107    0.000
  780 1 1 -33.798  -153.939    0.000
  781 1 1 -35.050  -151.771    0.000
  782 1 1 -33.798  -149.603    0.000
  783 1 1 -35.050  -147.435    0.000
  784 1 1 -33.798  -145.267    0.000
  785 1 1 -35.050  -143.099    0.000
  786 1 1 -33.798  -140.930    0.000
  787 1 1 -35.050  -138.762    0.000
  788 1 1 -33.798  -136.594    0.000
  789 1 1 -35.050  -134.426    0.000
  790 1 1 -33.798  -132.258    0.000
  791 1 1 -35.050  -130.090    0.000
  792 1 1 -33.798  -127.921    0.000
  793 1 1 -35.050  -125.753    0.000
  794 1 1 -33.798  -123.585    0.000
  795 1 1 -35.050  -121.417    0.000
  796 1 1 -33.798  -119.249    0.000
  797 1 1 -35.050  -117.081    0.000
  798 1 1 -33.798  -114.912    0.000
  799 1 1 -35.050  -112.744    0.000
  800 1 1 -33.798  -110.576    0.000
  801 1 1 -35.050  -108.408    0.000
  802 1 1 -33.798  -106.240    0.000
  803 1 1 -35.050  -104.072    0.000
  804 1 1 -33.798  -101.904    0.000
  805 1 1 -35.050  -99.735    0.000
  806 1 1 -33.798  -97.567    0.000
  807 1 1 -35.050  -95.399    0.000
  808 1 1 -33.798  -93.231    0.000
  809 1 1 -35.050  -91.063    0.000
  810 1 1 -33.798  -88.895    0.000
  811 1 1 -35.050  -86.726    0.000
  812 1 1 -33.798  -84.558    0.000
  813 1 1 -35.050  -82.390    0.000
  814 1 1 -33.798  -80.222    0.000
  815 1 1 -35.050  -78.054    0.000
  816 1 1 -33.798  -75.886    0.000
  817 1 1 -35.050  -73.717    0.000
  818 1 1 -33.798  -71.549    0.000
  819 1 1 -35.050  -69.381    0.000
  820 1 1 -33.798  -67.213    0.000